# Force       
# CofR        : (5.000000e+00 5.000000e-03 0.000000e+00)
#
# Time        	(total_x total_y total_z)	(pressure_x pressure_y pressure_z)	(viscous_x viscous_y viscous_z)
1.20005e-05   	(2.964320e+04 6.138873e+04 -1.693613e-14)	(2.964238e+04 6.138876e+04 -1.693609e-14)	(8.154151e-01 -2.408130e-02 -3.793901e-20)
2.64017e-05   	(1.035182e+03 1.340933e+03 1.485922e-15)	(1.034372e+03 1.340967e+03 1.485958e-15)	(8.101446e-01 -3.351572e-02 -3.598941e-20)
4.36833e-05   	(1.996175e+02 2.145187e+02 3.749156e-16)	(1.988059e+02 2.145561e+02 3.749504e-16)	(8.115855e-01 -3.739683e-02 -3.473536e-20)
6.44211e-05   	(5.792183e+01 1.005007e+02 1.676212e-16)	(5.710773e+01 1.005398e+02 1.676541e-16)	(8.141059e-01 -3.913412e-02 -3.290264e-20)
8.93055e-05   	(2.494320e+01 7.941363e+01 9.443324e-17)	(2.412579e+01 7.945393e+01 9.446378e-17)	(8.174092e-01 -4.029721e-02 -3.053582e-20)
0.000119165   	(2.215355e+01 8.212797e+01 1.085271e-16)	(2.133213e+01 8.216910e+01 1.085545e-16)	(8.214242e-01 -4.112182e-02 -2.737378e-20)
0.00015499    	(2.719308e+01 9.381385e+01 1.562138e-16)	(2.636666e+01 9.385553e+01 1.562373e-16)	(8.264151e-01 -4.168299e-02 -2.348708e-20)
0.000197972   	(3.185979e+01 1.010089e+02 1.938265e-16)	(3.102711e+01 1.010509e+02 1.938457e-16)	(8.326737e-01 -4.199695e-02 -1.922870e-20)
0.000249549   	(3.445676e+01 1.141675e+02 2.593747e-16)	(3.361662e+01 1.142095e+02 2.593901e-16)	(8.401463e-01 -4.202043e-02 -1.536492e-20)
0.000311429   	(3.634269e+01 1.397809e+02 3.904093e-16)	(3.549377e+01 1.398227e+02 3.904212e-16)	(8.489244e-01 -4.172029e-02 -1.191623e-20)
0.000384837   	(3.665135e+01 1.534548e+02 5.106498e-16)	(3.579269e+01 1.534959e+02 5.106580e-16)	(8.586652e-01 -4.109841e-02 -8.183062e-21)
0.000469688   	(3.582814e+01 1.495204e+02 5.739590e-16)	(3.495840e+01 1.495610e+02 5.739637e-16)	(8.697396e-01 -4.051430e-02 -4.764591e-21)
0.00056576    	(3.489537e+01 1.483123e+02 6.399761e-16)	(3.401327e+01 1.483527e+02 6.399776e-16)	(8.821016e-01 -4.041788e-02 -1.509862e-21)
0.000672794   	(3.323831e+01 1.469507e+02 6.926844e-16)	(3.234281e+01 1.469916e+02 6.926833e-16)	(8.954938e-01 -4.087846e-02 1.114679e-21)
0.000780641   	(3.145537e+01 1.452780e+02 7.292896e-16)	(3.054729e+01 1.453198e+02 7.292880e-16)	(9.080745e-01 -4.182711e-02 1.524480e-21)
0.000887443   	(2.942557e+01 1.443429e+02 7.648850e-16)	(2.850528e+01 1.443863e+02 7.648870e-16)	(9.202881e-01 -4.344177e-02 -1.998016e-21)
0.000993787   	(2.679736e+01 1.427305e+02 8.115993e-16)	(2.586530e+01 1.427764e+02 8.116076e-16)	(9.320591e-01 -4.589274e-02 -8.269250e-21)
0.00109945    	(2.347686e+01 1.400910e+02 8.648232e-16)	(2.253298e+01 1.401407e+02 8.648365e-16)	(9.438851e-01 -4.967997e-02 -1.329839e-20)
0.00120183    	(1.947719e+01 1.345947e+02 9.145895e-16)	(1.852093e+01 1.346500e+02 9.146070e-16)	(9.562590e-01 -5.534186e-02 -1.751092e-20)
0.00130103    	(1.534865e+01 1.247591e+02 9.294906e-16)	(1.437944e+01 1.248210e+02 9.295108e-16)	(9.692162e-01 -6.190852e-02 -2.013893e-20)
0.00139779    	(1.122404e+01 1.135651e+02 9.132410e-16)	(1.024197e+01 1.136330e+02 9.132639e-16)	(9.820663e-01 -6.787028e-02 -2.280789e-20)
0.00149224    	(5.476289e+00 1.035310e+02 9.213920e-16)	(4.482010e+00 1.036040e+02 9.214197e-16)	(9.942794e-01 -7.296776e-02 -2.767259e-20)
0.00158473    	(-4.370906e+00 8.675523e+01 1.004880e-15)	(-5.376658e+00 8.683270e+01 1.004911e-15)	(1.005753e+00 -7.747060e-02 -3.110620e-20)
0.00167577    	(-2.360080e+01 5.183811e+01 1.287031e-15)	(-2.461702e+01 5.191916e+01 1.287058e-15)	(1.016217e+00 -8.104619e-02 -2.725473e-20)
0.00176557    	(-5.252870e+01 -1.211059e+01 1.724450e-15)	(-5.355457e+01 -1.202738e+01 1.724465e-15)	(1.025871e+00 -8.321012e-02 -1.491096e-20)
0.00185463    	(-4.537852e+01 -1.414440e+01 1.632227e-15)	(-4.641446e+01 -1.405923e+01 1.632228e-15)	(1.035940e+00 -8.516560e-02 -1.322178e-21)
0.00194305    	(-1.339608e+01 4.144190e+01 1.135746e-15)	(-1.444287e+01 4.152963e+01 1.135742e-15)	(1.046795e+00 -8.773127e-02 3.389912e-21)
0.00203075    	(-2.012602e-01 7.263445e+01 9.317798e-16)	(-1.258332e+00 7.272464e+01 9.317768e-16)	(1.057072e+00 -9.019131e-02 2.993812e-21)
0.00211776    	(2.274833e+00 8.184033e+01 8.922880e-16)	(1.208002e+00 8.193274e+01 8.922872e-16)	(1.066831e+00 -9.241405e-02 8.363133e-22)
0.00220415    	(4.429062e+00 8.690433e+01 8.656599e-16)	(3.352644e+00 8.699880e+01 8.656617e-16)	(1.076419e+00 -9.446171e-02 -1.768078e-21)
0.00229017    	(5.805485e+00 9.072154e+01 8.576502e-16)	(4.719717e+00 9.081796e+01 8.576546e-16)	(1.085769e+00 -9.641238e-02 -4.354585e-21)
0.00237565    	(6.921120e+00 9.355891e+01 8.545666e-16)	(5.826268e+00 9.365722e+01 8.545733e-16)	(1.094852e+00 -9.831507e-02 -6.648608e-21)
0.00246091    	(7.638898e+00 9.592053e+01 8.572209e-16)	(6.535219e+00 9.602073e+01 8.572296e-16)	(1.103679e+00 -1.002050e-01 -8.618627e-21)
0.00254573    	(8.220218e+00 9.760169e+01 8.586624e-16)	(7.107929e+00 9.770379e+01 8.586728e-16)	(1.112289e+00 -1.020925e-01 -1.035061e-20)
0.0026304     	(8.506812e+00 9.864628e+01 8.622935e-16)	(7.386087e+00 9.875026e+01 8.623053e-16)	(1.120726e+00 -1.039845e-01 -1.180223e-20)
0.00271477    	(8.726207e+00 9.936727e+01 8.653084e-16)	(7.597263e+00 9.947316e+01 8.653214e-16)	(1.128945e+00 -1.058880e-01 -1.299344e-20)
0.00279908    	(8.874522e+00 1.001885e+02 8.695027e-16)	(7.737577e+00 1.002963e+02 8.695166e-16)	(1.136945e+00 -1.077928e-01 -1.388785e-20)
0.00288323    	(8.916680e+00 1.003048e+02 8.734693e-16)	(7.771963e+00 1.004145e+02 8.734837e-16)	(1.144717e+00 -1.097033e-01 -1.442962e-20)
0.00296739    	(8.984952e+00 1.007816e+02 8.788935e-16)	(7.832710e+00 1.008932e+02 8.789081e-16)	(1.152242e+00 -1.116135e-01 -1.458899e-20)
0.00305133    	(9.150069e+00 1.016526e+02 8.843319e-16)	(7.990574e+00 1.017661e+02 8.843462e-16)	(1.159496e+00 -1.135151e-01 -1.428068e-20)
0.00313483    	(9.310599e+00 1.025812e+02 8.909385e-16)	(8.144148e+00 1.026966e+02 8.909519e-16)	(1.166451e+00 -1.153959e-01 -1.342723e-20)
0.00321819    	(9.507310e+00 1.034649e+02 8.972305e-16)	(8.334176e+00 1.035821e+02 8.972425e-16)	(1.173134e+00 -1.172698e-01 -1.192181e-20)
0.00330141    	(9.699795e+00 1.044203e+02 9.041414e-16)	(8.520247e+00 1.045394e+02 9.041511e-16)	(1.179548e+00 -1.191423e-01 -9.720361e-21)
0.00338449    	(9.963345e+00 1.053246e+02 9.084351e-16)	(8.777608e+00 1.054456e+02 9.084418e-16)	(1.185737e+00 -1.210166e-01 -6.686725e-21)
0.00346756    	(9.993972e+00 1.057368e+02 9.150915e-16)	(8.802248e+00 1.058597e+02 9.150945e-16)	(1.191723e+00 -1.228972e-01 -2.944295e-21)
0.00355056    	(9.907169e+00 1.059470e+02 9.229963e-16)	(8.709606e+00 1.060718e+02 9.229952e-16)	(1.197563e+00 -1.247761e-01 1.173087e-21)
0.00363349    	(1.000662e+01 1.065482e+02 9.288722e-16)	(8.803460e+00 1.066749e+02 9.288669e-16)	(1.203161e+00 -1.266377e-01 5.334426e-21)
0.0037165     	(9.992297e+00 1.067410e+02 9.357714e-16)	(8.783818e+00 1.068694e+02 9.357621e-16)	(1.208478e+00 -1.284543e-01 9.290143e-21)
0.00379964    	(1.006757e+01 1.074575e+02 9.432454e-16)	(8.854185e+00 1.075877e+02 9.432325e-16)	(1.213380e+00 -1.301852e-01 1.287895e-20)
0.00388293    	(1.019860e+01 1.080110e+02 9.486360e-16)	(8.980385e+00 1.081429e+02 9.486203e-16)	(1.218217e+00 -1.318995e-01 1.565120e-20)
0.0039663     	(1.026304e+01 1.087790e+02 9.560766e-16)	(9.040417e+00 1.089125e+02 9.560588e-16)	(1.222627e+00 -1.335367e-01 1.782097e-20)
0.0040498     	(1.022180e+01 1.091149e+02 9.641928e-16)	(8.995056e+00 1.092500e+02 9.641736e-16)	(1.226749e+00 -1.351033e-01 1.915541e-20)
0.00413331    	(1.041772e+01 1.100878e+02 9.697402e-16)	(9.183827e+00 1.102256e+02 9.697352e-16)	(1.233896e+00 -1.378189e-01 4.984324e-21)
0.00421689    	(1.063342e+01 1.110191e+02 9.734137e-16)	(9.395844e+00 1.111584e+02 9.734067e-16)	(1.237575e+00 -1.393047e-01 7.048500e-21)
0.00430047    	(1.086385e+01 1.119455e+02 9.761771e-16)	(9.622853e+00 1.120863e+02 9.761682e-16)	(1.240997e+00 -1.407180e-01 8.888850e-21)
0.00438405    	(1.099607e+01 1.126839e+02 9.791991e-16)	(9.751920e+00 1.128260e+02 9.791888e-16)	(1.244151e+00 -1.420444e-01 1.033800e-20)
0.00446756    	(1.106776e+01 1.133497e+02 9.829351e-16)	(9.820862e+00 1.134930e+02 9.829239e-16)	(1.246895e+00 -1.432207e-01 1.118234e-20)
0.00455107    	(1.118319e+01 1.140483e+02 9.853892e-16)	(9.930232e+00 1.141939e+02 9.853689e-16)	(1.252957e+00 -1.456587e-01 2.028412e-20)
0.00463457    	(1.134682e+01 1.148623e+02 9.866096e-16)	(1.009123e+01 1.150091e+02 9.865861e-16)	(1.255587e+00 -1.468081e-01 2.351280e-20)
0.00471808    	(1.150424e+01 1.155891e+02 9.870939e-16)	(1.024618e+01 1.157370e+02 9.870680e-16)	(1.258063e+00 -1.479024e-01 2.596918e-20)
0.00480166    	(1.158802e+01 1.162942e+02 9.888415e-16)	(1.032764e+01 1.164431e+02 9.888135e-16)	(1.260379e+00 -1.489206e-01 2.797837e-20)
0.00488532    	(1.170460e+01 1.168947e+02 9.894524e-16)	(1.044214e+01 1.170445e+02 9.894224e-16)	(1.262461e+00 -1.498207e-01 2.993249e-20)
0.00496912    	(1.173775e+01 1.175534e+02 9.920255e-16)	(1.047314e+01 1.177041e+02 9.919935e-16)	(1.264603e+00 -1.507003e-01 3.201281e-20)
0.00505307    	(1.191525e+01 1.181599e+02 9.911923e-16)	(1.064574e+01 1.183125e+02 9.911587e-16)	(1.269511e+00 -1.526382e-01 3.355956e-20)
0.00513709    	(1.205826e+01 1.188746e+02 9.914387e-16)	(1.078674e+01 1.190280e+02 9.914053e-16)	(1.271521e+00 -1.534027e-01 3.341641e-20)
0.00522119    	(1.220150e+01 1.194201e+02 9.906961e-16)	(1.092724e+01 1.195746e+02 9.906661e-16)	(1.274257e+00 -1.545039e-01 3.005216e-20)
0.00530536    	(1.229556e+01 1.201915e+02 9.914858e-16)	(1.101937e+01 1.203467e+02 9.914537e-16)	(1.276184e+00 -1.551993e-01 3.213928e-20)
0.00538961    	(1.239899e+01 1.206419e+02 9.908497e-16)	(1.112012e+01 1.207983e+02 9.908152e-16)	(1.278873e+00 -1.563392e-01 3.450263e-20)
0.00547386    	(1.253958e+01 1.213204e+02 9.893915e-16)	(1.125567e+01 1.214787e+02 9.893639e-16)	(1.283900e+00 -1.583546e-01 2.758524e-20)
0.00555818    	(1.261488e+01 1.217629e+02 9.880648e-16)	(1.132909e+01 1.219218e+02 9.880362e-16)	(1.285792e+00 -1.588871e-01 2.858758e-20)
0.00564258    	(1.268297e+01 1.223914e+02 9.883968e-16)	(1.139589e+01 1.225507e+02 9.883695e-16)	(1.287079e+00 -1.592504e-01 2.723378e-20)
0.00572705    	(1.275574e+01 1.227944e+02 9.875537e-16)	(1.146745e+01 1.229539e+02 9.875286e-16)	(1.288288e+00 -1.595602e-01 2.513874e-20)
0.00581153    	(1.275360e+01 1.231451e+02 9.887694e-16)	(1.146426e+01 1.233049e+02 9.887470e-16)	(1.289341e+00 -1.597752e-01 2.239369e-20)
0.00589608    	(1.272237e+01 1.234707e+02 9.900425e-16)	(1.143222e+01 1.236305e+02 9.900233e-16)	(1.290152e+00 -1.598324e-01 1.919951e-20)
0.00598063    	(1.270868e+01 1.238457e+02 9.921252e-16)	(1.141544e+01 1.240064e+02 9.921097e-16)	(1.293239e+00 -1.607505e-01 1.549942e-20)
0.00606525    	(1.277176e+01 1.242111e+02 9.915551e-16)	(1.147752e+01 1.243718e+02 9.915404e-16)	(1.294244e+00 -1.606919e-01 1.474368e-20)
0.00614988    	(1.283669e+01 1.247739e+02 9.931692e-16)	(1.154174e+01 1.249345e+02 9.931565e-16)	(1.294951e+00 -1.606501e-01 1.274620e-20)
0.00623458    	(1.281514e+01 1.250872e+02 9.944327e-16)	(1.151961e+01 1.252477e+02 9.944224e-16)	(1.295523e+00 -1.605207e-01 1.034874e-20)
0.00631928    	(1.289289e+01 1.257012e+02 9.966651e-16)	(1.159631e+01 1.258619e+02 9.966581e-16)	(1.296580e+00 -1.607175e-01 7.072668e-21)
0.00640399    	(1.314565e+01 1.265481e+02 9.944563e-16)	(1.184866e+01 1.267084e+02 9.944531e-16)	(1.296992e+00 -1.602778e-01 3.203505e-21)
0.00648869    	(1.324374e+01 1.272437e+02 9.976489e-16)	(1.194432e+01 1.274046e+02 9.976384e-16)	(1.299413e+00 -1.609192e-01 1.054757e-20)
0.00657347    	(1.348806e+01 1.282383e+02 9.977972e-16)	(1.218883e+01 1.283986e+02 9.977886e-16)	(1.299230e+00 -1.603622e-01 8.575393e-21)
0.00665825    	(1.376076e+01 1.294251e+02 9.999713e-16)	(1.246152e+01 1.295852e+02 9.999606e-16)	(1.299238e+00 -1.600398e-01 1.078072e-20)
0.00674303    	(1.408549e+01 1.304405e+02 9.966062e-16)	(1.278690e+01 1.305998e+02 9.965977e-16)	(1.298582e+00 -1.592470e-01 8.480776e-21)
0.0068278     	(1.429375e+01 1.315106e+02 9.977358e-16)	(1.299595e+01 1.316690e+02 9.977292e-16)	(1.297809e+00 -1.584392e-01 6.658412e-21)
0.00691258    	(1.461370e+01 1.327621e+02 9.942012e-16)	(1.331651e+01 1.329200e+02 9.942007e-16)	(1.297191e+00 -1.578789e-01 4.695111e-22)
0.00699736    	(1.484302e+01 1.339623e+02 9.924883e-16)	(1.354715e+01 1.341189e+02 9.924888e-16)	(1.295871e+00 -1.566544e-01 -4.855722e-22)
0.00708222    	(1.516330e+01 1.350268e+02 9.832652e-16)	(1.386630e+01 1.351835e+02 9.832671e-16)	(1.297005e+00 -1.566614e-01 -1.901944e-21)
0.00716708    	(1.541420e+01 1.362315e+02 9.772672e-16)	(1.411856e+01 1.363871e+02 9.772706e-16)	(1.295639e+00 -1.556039e-01 -3.375665e-21)
0.00725193    	(1.570844e+01 1.375234e+02 9.683375e-16)	(1.441406e+01 1.376782e+02 9.683423e-16)	(1.294375e+00 -1.548049e-01 -4.793792e-21)
0.00733687    	(1.599365e+01 1.387687e+02 9.613357e-16)	(1.470128e+01 1.389222e+02 9.613419e-16)	(1.292376e+00 -1.534950e-01 -6.174067e-21)
0.0074218     	(1.616581e+01 1.396080e+02 9.509529e-16)	(1.487421e+01 1.397609e+02 9.509610e-16)	(1.291603e+00 -1.529329e-01 -8.058849e-21)
0.00750681    	(1.632889e+01 1.406207e+02 9.448409e-16)	(1.503930e+01 1.407725e+02 9.448494e-16)	(1.289590e+00 -1.518066e-01 -8.485821e-21)
0.00759182    	(1.654654e+01 1.417493e+02 9.376064e-16)	(1.525943e+01 1.418996e+02 9.376172e-16)	(1.287113e+00 -1.503231e-01 -1.071546e-20)
0.00767692    	(1.677340e+01 1.428761e+02 9.336380e-16)	(1.548697e+01 1.430258e+02 9.336511e-16)	(1.286426e+00 -1.496835e-01 -1.312075e-20)
0.00776201    	(1.701727e+01 1.438861e+02 9.283640e-16)	(1.573332e+01 1.440347e+02 9.283794e-16)	(1.283946e+00 -1.486065e-01 -1.542452e-20)
0.0078471     	(1.707952e+01 1.447822e+02 9.286729e-16)	(1.579813e+01 1.449293e+02 9.286903e-16)	(1.281384e+00 -1.471333e-01 -1.737451e-20)
0.00793227    	(1.730879e+01 1.457703e+02 9.253091e-16)	(1.602957e+01 1.459164e+02 9.253287e-16)	(1.279219e+00 -1.461127e-01 -1.953370e-20)
0.00801743    	(1.759998e+01 1.471371e+02 9.253455e-16)	(1.632364e+01 1.472816e+02 9.253672e-16)	(1.276347e+00 -1.445220e-01 -2.170248e-20)
0.0081026     	(1.790216e+01 1.483310e+02 9.231298e-16)	(1.662884e+01 1.484739e+02 9.231537e-16)	(1.273320e+00 -1.428708e-01 -2.394235e-20)
0.00818785    	(1.795939e+01 1.491177e+02 9.251676e-16)	(1.668950e+01 1.492588e+02 9.251937e-16)	(1.269897e+00 -1.410752e-01 -2.604686e-20)
0.0082731     	(1.821427e+01 1.500776e+02 9.223916e-16)	(1.694658e+01 1.502173e+02 9.224200e-16)	(1.267698e+00 -1.396734e-01 -2.841383e-20)
0.00835835    	(1.847233e+01 1.512235e+02 9.212084e-16)	(1.720799e+01 1.513614e+02 9.212397e-16)	(1.264345e+00 -1.379755e-01 -3.132210e-20)
0.00844352    	(1.873537e+01 1.523450e+02 9.186589e-16)	(1.747457e+01 1.524815e+02 9.186932e-16)	(1.260799e+00 -1.364509e-01 -3.423729e-20)
0.00852853    	(1.887683e+01 1.531878e+02 9.161956e-16)	(1.761957e+01 1.533225e+02 9.162328e-16)	(1.257254e+00 -1.347108e-01 -3.722435e-20)
0.00861346    	(1.900125e+01 1.539101e+02 9.128238e-16)	(1.774759e+01 1.540431e+02 9.128643e-16)	(1.253653e+00 -1.330041e-01 -4.042535e-20)
0.00869831    	(1.921706e+01 1.547104e+02 9.073519e-16)	(1.796696e+01 1.548418e+02 9.073957e-16)	(1.250099e+00 -1.313515e-01 -4.385502e-20)
0.00878309    	(1.937608e+01 1.555831e+02 9.032260e-16)	(1.812964e+01 1.557128e+02 9.032734e-16)	(1.246440e+00 -1.297275e-01 -4.747909e-20)
0.00886778    	(1.955675e+01 1.564176e+02 8.976652e-16)	(1.831404e+01 1.565462e+02 8.977207e-16)	(1.242712e+00 -1.286406e-01 -5.551511e-20)
0.0089524     	(1.954267e+01 1.571602e+02 8.922150e-16)	(1.830351e+01 1.572872e+02 8.922739e-16)	(1.239161e+00 -1.270099e-01 -5.893198e-20)
0.00903694    	(1.975892e+01 1.577229e+02 8.824838e-16)	(1.852327e+01 1.578489e+02 8.825458e-16)	(1.235647e+00 -1.259649e-01 -6.198745e-20)
0.0091214     	(1.990679e+01 1.585672e+02 8.754017e-16)	(1.867494e+01 1.586916e+02 8.754677e-16)	(1.231842e+00 -1.243728e-01 -6.606380e-20)
0.00920586    	(2.005915e+01 1.591070e+02 8.659118e-16)	(1.883119e+01 1.592298e+02 8.659820e-16)	(1.227955e+00 -1.228042e-01 -7.014273e-20)
0.00929024    	(2.023715e+01 1.599478e+02 8.569763e-16)	(1.901282e+01 1.600695e+02 8.570501e-16)	(1.224326e+00 -1.217323e-01 -7.377301e-20)
0.00937454    	(2.022739e+01 1.604706e+02 8.459556e-16)	(1.900692e+01 1.605907e+02 8.460320e-16)	(1.220465e+00 -1.201662e-01 -7.632410e-20)
0.00945876    	(2.055657e+01 1.614008e+02 8.323944e-16)	(1.933990e+01 1.615195e+02 8.324725e-16)	(1.216674e+00 -1.186695e-01 -7.809557e-20)
0.00954291    	(2.077446e+01 1.621508e+02 8.202004e-16)	(1.956154e+01 1.622683e+02 8.202790e-16)	(1.212915e+00 -1.175022e-01 -7.855108e-20)
0.00962706    	(2.101799e+01 1.629254e+02 8.088325e-16)	(1.980895e+01 1.630416e+02 8.089100e-16)	(1.209034e+00 -1.161280e-01 -7.753759e-20)
0.00971112    	(2.133907e+01 1.639986e+02 7.972984e-16)	(2.013375e+01 1.641131e+02 7.973736e-16)	(1.205328e+00 -1.145040e-01 -7.522635e-20)
0.00979511    	(2.149430e+01 1.649251e+02 7.900246e-16)	(2.029325e+01 1.650384e+02 7.900968e-16)	(1.201058e+00 -1.132455e-01 -7.217823e-20)
0.0098791     	(2.180486e+01 1.656950e+02 7.794898e-16)	(2.060763e+01 1.658074e+02 7.795583e-16)	(1.197238e+00 -1.123590e-01 -6.846750e-20)
0.00996301    	(2.208547e+01 1.665239e+02 7.734561e-16)	(2.089206e+01 1.666351e+02 7.735204e-16)	(1.193411e+00 -1.112181e-01 -6.431563e-20)
0.0100469     	(2.246220e+01 1.675948e+02 7.689857e-16)	(2.127266e+01 1.677050e+02 7.690459e-16)	(1.189542e+00 -1.101302e-01 -6.016784e-20)
0.0101308     	(2.281568e+01 1.687301e+02 7.697809e-16)	(2.163003e+01 1.688392e+02 7.698373e-16)	(1.185651e+00 -1.090350e-01 -5.638509e-20)
0.0102147     	(2.293225e+01 1.692965e+02 7.754739e-16)	(2.175034e+01 1.694048e+02 7.755269e-16)	(1.181909e+00 -1.083043e-01 -5.304124e-20)
0.0102985     	(2.320175e+01 1.699280e+02 7.812625e-16)	(2.202353e+01 1.700354e+02 7.813132e-16)	(1.178223e+00 -1.074419e-01 -5.072001e-20)
0.0103823     	(2.350854e+01 1.707593e+02 7.887182e-16)	(2.233399e+01 1.708659e+02 7.887673e-16)	(1.174545e+00 -1.066207e-01 -4.904935e-20)
0.0104661     	(2.389121e+01 1.716219e+02 7.995090e-16)	(2.272038e+01 1.717277e+02 7.995579e-16)	(1.170829e+00 -1.058255e-01 -4.894127e-20)
0.0105498     	(2.399070e+01 1.718640e+02 8.119888e-16)	(2.282356e+01 1.719693e+02 8.120401e-16)	(1.167140e+00 -1.052669e-01 -5.135822e-20)
0.0106336     	(2.410713e+01 1.720252e+02 8.258796e-16)	(2.294367e+01 1.721303e+02 8.259398e-16)	(1.163457e+00 -1.051285e-01 -6.017919e-20)
0.0107174     	(2.427240e+01 1.723390e+02 8.372589e-16)	(2.311249e+01 1.724435e+02 8.373219e-16)	(1.159909e+00 -1.044220e-01 -6.298760e-20)
0.0108011     	(2.458796e+01 1.728410e+02 8.474284e-16)	(2.343165e+01 1.729452e+02 8.474961e-16)	(1.156312e+00 -1.041998e-01 -6.769197e-20)
0.0108848     	(2.474861e+01 1.730712e+02 8.563079e-16)	(2.359597e+01 1.731747e+02 8.563810e-16)	(1.152641e+00 -1.034968e-01 -7.306103e-20)
0.0109685     	(2.466981e+01 1.729283e+02 8.691327e-16)	(2.352068e+01 1.730312e+02 8.692119e-16)	(1.149131e+00 -1.028783e-01 -7.926093e-20)
0.0110521     	(2.478695e+01 1.727868e+02 8.702303e-16)	(2.364129e+01 1.728893e+02 8.703169e-16)	(1.145664e+00 -1.024377e-01 -8.668275e-20)
0.0111358     	(2.504189e+01 1.731865e+02 8.729888e-16)	(2.389974e+01 1.732883e+02 8.730836e-16)	(1.142153e+00 -1.017710e-01 -9.474944e-20)
0.0112196     	(2.516524e+01 1.730890e+02 8.738982e-16)	(2.402668e+01 1.731901e+02 8.740012e-16)	(1.138557e+00 -1.011059e-01 -1.030320e-19)
0.0113033     	(2.492633e+01 1.722908e+02 8.796415e-16)	(2.379129e+01 1.723913e+02 8.797525e-16)	(1.135034e+00 -1.005091e-01 -1.109868e-19)
0.0113871     	(2.477153e+01 1.708781e+02 8.809001e-16)	(2.364030e+01 1.709782e+02 8.810189e-16)	(1.131230e+00 -1.000640e-01 -1.188227e-19)
0.0114708     	(2.485996e+01 1.707038e+02 8.825516e-16)	(2.373213e+01 1.708033e+02 8.826784e-16)	(1.127836e+00 -9.944034e-02 -1.268126e-19)
0.0115547     	(2.511472e+01 1.709269e+02 8.824405e-16)	(2.399032e+01 1.710257e+02 8.825756e-16)	(1.124391e+00 -9.883983e-02 -1.351226e-19)
0.0116385     	(2.503955e+01 1.709217e+02 8.859996e-16)	(2.391854e+01 1.710200e+02 8.861427e-16)	(1.121011e+00 -9.826820e-02 -1.431757e-19)
0.0117223     	(2.506680e+01 1.707571e+02 8.867446e-16)	(2.394914e+01 1.708553e+02 8.868955e-16)	(1.117656e+00 -9.815274e-02 -1.509338e-19)
0.0118063     	(2.521760e+01 1.709821e+02 8.878819e-16)	(2.410326e+01 1.710799e+02 8.880410e-16)	(1.114339e+00 -9.778459e-02 -1.590778e-19)
0.0118902     	(2.552306e+01 1.716697e+02 8.868932e-16)	(2.441191e+01 1.717669e+02 8.870611e-16)	(1.111155e+00 -9.723045e-02 -1.678160e-19)
0.0119742     	(2.571896e+01 1.721068e+02 8.898608e-16)	(2.461099e+01 1.722034e+02 8.900374e-16)	(1.107968e+00 -9.665678e-02 -1.766745e-19)
0.0120582     	(2.547993e+01 1.719134e+02 8.976756e-16)	(2.437501e+01 1.720096e+02 8.978613e-16)	(1.104922e+00 -9.614194e-02 -1.857125e-19)
0.0121424     	(2.564970e+01 1.719428e+02 8.988321e-16)	(2.454788e+01 1.720386e+02 8.990273e-16)	(1.101824e+00 -9.584058e-02 -1.952028e-19)
0.0122266     	(2.572809e+01 1.726079e+02 9.044755e-16)	(2.462925e+01 1.727038e+02 9.046806e-16)	(1.098844e+00 -9.584030e-02 -2.051302e-19)
0.0123109     	(2.604496e+01 1.731455e+02 9.065617e-16)	(2.494903e+01 1.732410e+02 9.067747e-16)	(1.095936e+00 -9.554467e-02 -2.130068e-19)
0.0123953     	(2.610020e+01 1.735746e+02 9.127697e-16)	(2.500703e+01 1.736697e+02 9.129912e-16)	(1.093170e+00 -9.504492e-02 -2.215106e-19)
0.0124798     	(2.587672e+01 1.731912e+02 9.242135e-16)	(2.478613e+01 1.732858e+02 9.244434e-16)	(1.090587e+00 -9.459934e-02 -2.299399e-19)
0.0125644     	(2.596818e+01 1.732169e+02 9.286994e-16)	(2.488006e+01 1.733111e+02 9.289374e-16)	(1.088116e+00 -9.422034e-02 -2.379569e-19)
0.0126491     	(2.601575e+01 1.732614e+02 9.368687e-16)	(2.493003e+01 1.733553e+02 9.371135e-16)	(1.085721e+00 -9.390433e-02 -2.448641e-19)
0.0127339     	(2.612331e+01 1.731832e+02 9.422475e-16)	(2.503994e+01 1.732768e+02 9.424977e-16)	(1.083372e+00 -9.359691e-02 -2.502206e-19)
0.0128189     	(2.600661e+01 1.722769e+02 9.530412e-16)	(2.492557e+01 1.723702e+02 9.532955e-16)	(1.081039e+00 -9.332129e-02 -2.543078e-19)
0.0129039     	(2.567398e+01 1.716086e+02 9.665755e-16)	(2.459553e+01 1.717022e+02 9.668331e-16)	(1.078450e+00 -9.352368e-02 -2.576082e-19)
0.0129891     	(2.561830e+01 1.704751e+02 9.732164e-16)	(2.454183e+01 1.705684e+02 9.734765e-16)	(1.076477e+00 -9.334074e-02 -2.601427e-19)
0.0130744     	(2.536745e+01 1.696019e+02 9.848569e-16)	(2.429285e+01 1.696951e+02 9.851186e-16)	(1.074600e+00 -9.319805e-02 -2.617205e-19)
0.0131598     	(2.522289e+01 1.683790e+02 9.946740e-16)	(2.415035e+01 1.684727e+02 9.949361e-16)	(1.072547e+00 -9.369407e-02 -2.621470e-19)
0.0132453     	(2.506932e+01 1.672191e+02 1.004902e-15)	(2.399855e+01 1.673126e+02 1.005164e-15)	(1.070774e+00 -9.353171e-02 -2.613559e-19)
0.013331      	(2.457763e+01 1.655043e+02 1.021116e-15)	(2.350850e+01 1.655978e+02 1.021376e-15)	(1.069127e+00 -9.346615e-02 -2.599222e-19)
0.0134168     	(2.436359e+01 1.640255e+02 1.029738e-15)	(2.329600e+01 1.641190e+02 1.029995e-15)	(1.067593e+00 -9.345768e-02 -2.574755e-19)
0.0135026     	(2.401262e+01 1.618744e+02 1.040581e-15)	(2.294645e+01 1.619679e+02 1.040835e-15)	(1.066164e+00 -9.349228e-02 -2.540709e-19)
0.0135883     	(2.366856e+01 1.597564e+02 1.050401e-15)	(2.260372e+01 1.598500e+02 1.050650e-15)	(1.064843e+00 -9.356978e-02 -2.496519e-19)
0.013674      	(2.347266e+01 1.580011e+02 1.059197e-15)	(2.240908e+01 1.580947e+02 1.059442e-15)	(1.063587e+00 -9.362738e-02 -2.444984e-19)
0.0137598     	(2.307509e+01 1.562706e+02 1.073381e-15)	(2.201271e+01 1.563646e+02 1.073619e-15)	(1.062380e+00 -9.398101e-02 -2.385827e-19)
0.0138455     	(2.290008e+01 1.544943e+02 1.080454e-15)	(2.183899e+01 1.545886e+02 1.080686e-15)	(1.061082e+00 -9.430191e-02 -2.320749e-19)
0.0139311     	(2.256269e+01 1.525291e+02 1.089152e-15)	(2.150271e+01 1.526235e+02 1.089377e-15)	(1.059978e+00 -9.443774e-02 -2.254986e-19)
0.0140167     	(2.221388e+01 1.505362e+02 1.098834e-15)	(2.115492e+01 1.506308e+02 1.099052e-15)	(1.058957e+00 -9.460347e-02 -2.187028e-19)
0.0141022     	(2.209235e+01 1.492960e+02 1.106180e-15)	(2.103472e+01 1.493913e+02 1.106392e-15)	(1.057629e+00 -9.528615e-02 -2.119231e-19)
0.0141877     	(2.207185e+01 1.482965e+02 1.112711e-15)	(2.101508e+01 1.483920e+02 1.112915e-15)	(1.056764e+00 -9.548330e-02 -2.040308e-19)
0.0142732     	(2.173497e+01 1.471096e+02 1.124802e-15)	(2.067930e+01 1.472054e+02 1.124998e-15)	(1.055663e+00 -9.583284e-02 -1.963476e-19)
0.0143587     	(2.151036e+01 1.455412e+02 1.131349e-15)	(2.045552e+01 1.456372e+02 1.131538e-15)	(1.054841e+00 -9.597678e-02 -1.891754e-19)
0.0144441     	(2.137728e+01 1.446172e+02 1.137227e-15)	(2.032323e+01 1.447133e+02 1.137409e-15)	(1.054057e+00 -9.612012e-02 -1.818562e-19)
0.0145295     	(2.146289e+01 1.442954e+02 1.141241e-15)	(2.040964e+01 1.443917e+02 1.141416e-15)	(1.053252e+00 -9.626951e-02 -1.749921e-19)
0.0146149     	(2.154246e+01 1.443606e+02 1.146941e-15)	(2.049009e+01 1.444570e+02 1.147109e-15)	(1.052373e+00 -9.641082e-02 -1.685813e-19)
0.0147003     	(2.125355e+01 1.441355e+02 1.162389e-15)	(2.020205e+01 1.442321e+02 1.162552e-15)	(1.051501e+00 -9.658578e-02 -1.628157e-19)
0.0147857     	(2.117999e+01 1.437882e+02 1.168765e-15)	(2.012955e+01 1.438852e+02 1.168923e-15)	(1.050438e+00 -9.701840e-02 -1.583042e-19)
0.0148711     	(2.143852e+01 1.443170e+02 1.168424e-15)	(2.038878e+01 1.444144e+02 1.168579e-15)	(1.049741e+00 -9.746893e-02 -1.548987e-19)
0.0149564     	(2.147142e+01 1.444560e+02 1.173797e-15)	(2.042257e+01 1.445537e+02 1.173950e-15)	(1.048857e+00 -9.771695e-02 -1.530190e-19)
0.0150417     	(2.163482e+01 1.451819e+02 1.174687e-15)	(2.058710e+01 1.452800e+02 1.174839e-15)	(1.047718e+00 -9.808989e-02 -1.528036e-19)
0.015127      	(2.146727e+01 1.456277e+02 1.185150e-15)	(2.042100e+01 1.457263e+02 1.185305e-15)	(1.046262e+00 -9.857512e-02 -1.542687e-19)
0.0152123     	(2.135474e+01 1.465382e+02 1.197510e-15)	(2.030952e+01 1.466369e+02 1.197668e-15)	(1.045216e+00 -9.869921e-02 -1.574133e-19)
0.0152976     	(2.164650e+01 1.466288e+02 1.192269e-15)	(2.060238e+01 1.467277e+02 1.192432e-15)	(1.044125e+00 -9.885591e-02 -1.623918e-19)
0.0153829     	(2.176064e+01 1.472430e+02 1.194897e-15)	(2.071784e+01 1.473422e+02 1.195065e-15)	(1.042807e+00 -9.921034e-02 -1.684575e-19)
0.0154682     	(2.172068e+01 1.471213e+02 1.198538e-15)	(2.067898e+01 1.472207e+02 1.198714e-15)	(1.041699e+00 -9.936493e-02 -1.753230e-19)
0.0155535     	(2.174419e+01 1.483438e+02 1.206596e-15)	(2.070369e+01 1.484434e+02 1.206777e-15)	(1.040501e+00 -9.952416e-02 -1.812870e-19)
0.0156388     	(2.158621e+01 1.495215e+02 1.219952e-15)	(2.054620e+01 1.496215e+02 1.220136e-15)	(1.040002e+00 -9.996685e-02 -1.843795e-19)
0.0157241     	(2.198280e+01 1.504699e+02 1.213605e-15)	(2.094330e+01 1.505703e+02 1.213792e-15)	(1.039505e+00 -1.004911e-01 -1.872250e-19)
0.0158093     	(2.229941e+01 1.518104e+02 1.209792e-15)	(2.126043e+01 1.519115e+02 1.209982e-15)	(1.038982e+00 -1.010614e-01 -1.896982e-19)
0.0158946     	(2.254275e+01 1.532860e+02 1.208241e-15)	(2.150431e+01 1.533876e+02 1.208433e-15)	(1.038440e+00 -1.016819e-01 -1.916639e-19)
0.0159798     	(2.264939e+01 1.549674e+02 1.211740e-15)	(2.161151e+01 1.550698e+02 1.211933e-15)	(1.037882e+00 -1.023199e-01 -1.928972e-19)
0.016065      	(2.266351e+01 1.566448e+02 1.218812e-15)	(2.162629e+01 1.567477e+02 1.219005e-15)	(1.037217e+00 -1.029092e-01 -1.929412e-19)
0.0161501     	(2.293643e+01 1.585505e+02 1.217311e-15)	(2.189997e+01 1.586540e+02 1.217503e-15)	(1.036458e+00 -1.035034e-01 -1.916235e-19)
0.0162352     	(2.339667e+01 1.602780e+02 1.206155e-15)	(2.236103e+01 1.603822e+02 1.206344e-15)	(1.035644e+00 -1.041675e-01 -1.891283e-19)
0.0163204     	(2.388518e+01 1.621335e+02 1.193909e-15)	(2.285045e+01 1.622384e+02 1.194094e-15)	(1.034734e+00 -1.048916e-01 -1.854116e-19)
0.0164055     	(2.409681e+01 1.643414e+02 1.191499e-15)	(2.306304e+01 1.644470e+02 1.191679e-15)	(1.033770e+00 -1.056507e-01 -1.803236e-19)
0.0164906     	(2.431952e+01 1.665709e+02 1.189527e-15)	(2.328678e+01 1.666773e+02 1.189700e-15)	(1.032739e+00 -1.064227e-01 -1.739018e-19)
0.0165757     	(2.447781e+01 1.691289e+02 1.190097e-15)	(2.344622e+01 1.692360e+02 1.190263e-15)	(1.031593e+00 -1.071561e-01 -1.660315e-19)
0.0166609     	(2.503474e+01 1.718036e+02 1.181336e-15)	(2.400439e+01 1.719116e+02 1.181493e-15)	(1.030350e+00 -1.079600e-01 -1.564059e-19)
0.016746      	(2.571430e+01 1.747474e+02 1.168393e-15)	(2.468526e+01 1.748562e+02 1.168539e-15)	(1.029046e+00 -1.088485e-01 -1.451747e-19)
0.0168311     	(2.620152e+01 1.774511e+02 1.161808e-15)	(2.517389e+01 1.775608e+02 1.161941e-15)	(1.027633e+00 -1.097644e-01 -1.329893e-19)
0.0169163     	(2.656409e+01 1.802147e+02 1.159281e-15)	(2.553799e+01 1.803254e+02 1.159401e-15)	(1.026097e+00 -1.106953e-01 -1.200659e-19)
0.0170014     	(2.690377e+01 1.831797e+02 1.158275e-15)	(2.587935e+01 1.832913e+02 1.158382e-15)	(1.024413e+00 -1.116056e-01 -1.070291e-19)
0.0170865     	(2.726990e+01 1.864019e+02 1.157062e-15)	(2.624731e+01 1.865144e+02 1.157156e-15)	(1.022591e+00 -1.124758e-01 -9.449144e-20)
0.0171716     	(2.795295e+01 1.898650e+02 1.150949e-15)	(2.693232e+01 1.899784e+02 1.151031e-15)	(1.020636e+00 -1.133966e-01 -8.170314e-20)
0.0172568     	(2.870723e+01 1.930116e+02 1.142995e-15)	(2.768860e+01 1.931260e+02 1.143063e-15)	(1.018637e+00 -1.143859e-01 -6.821516e-20)
0.0173421     	(2.921089e+01 1.958098e+02 1.141353e-15)	(2.819436e+01 1.959252e+02 1.141408e-15)	(1.016533e+00 -1.153614e-01 -5.464615e-20)
0.0174273     	(2.963312e+01 1.984773e+02 1.141751e-15)	(2.861884e+01 1.985936e+02 1.141792e-15)	(1.014280e+00 -1.163002e-01 -4.111084e-20)
0.0175126     	(2.994630e+01 2.016206e+02 1.149538e-15)	(2.893441e+01 2.017378e+02 1.149566e-15)	(1.011888e+00 -1.171719e-01 -2.784185e-20)
0.0175979     	(3.045704e+01 2.050421e+02 1.150216e-15)	(2.944771e+01 2.051601e+02 1.150231e-15)	(1.009326e+00 -1.179768e-01 -1.503592e-20)
0.0176832     	(3.114580e+01 2.085919e+02 1.143653e-15)	(3.013920e+01 2.087107e+02 1.143656e-15)	(1.006598e+00 -1.187877e-01 -2.766092e-21)