# Force       
# CofR        : (5.000000e+00 5.000000e-03 0.000000e+00)
#
# Time        	(total_x total_y total_z)	(pressure_x pressure_y pressure_z)	(viscous_x viscous_y viscous_z)
1.20005e-05   	(8.115323e+04 1.503708e+05 -3.161302e-13)	(8.115239e+04 1.503709e+05 -3.161302e-13)	(8.436392e-01 -8.689291e-02 -6.564074e-21)
2.64017e-05   	(2.815393e+03 4.499558e+03 -9.909826e-15)	(2.814566e+03 4.499665e+03 -9.909809e-15)	(8.268127e-01 -1.071311e-01 -1.663173e-20)
4.36833e-05   	(4.833631e+02 6.670848e+02 -1.907880e-15)	(4.825357e+02 6.672025e+02 -1.907860e-15)	(8.273995e-01 -1.177426e-01 -1.944680e-20)
6.44211e-05   	(1.614007e+02 3.228721e+02 -6.481915e-16)	(1.605697e+02 3.229949e+02 -6.481717e-16)	(8.309148e-01 -1.228787e-01 -1.975094e-20)
8.93055e-05   	(8.851413e+01 2.667284e+02 -3.423431e-16)	(8.767864e+01 2.668547e+02 -3.423233e-16)	(8.354885e-01 -1.263159e-01 -1.974661e-20)
0.000119165   	(8.116105e+01 2.703325e+02 -2.877000e-16)	(8.031973e+01 2.704615e+02 -2.876797e-16)	(8.413207e-01 -1.289906e-01 -2.031622e-20)
0.000154748   	(9.364606e+01 2.780337e+02 -2.976843e-16)	(9.279717e+01 2.781650e+02 -2.976636e-16)	(8.488844e-01 -1.312599e-01 -2.076550e-20)
0.000196058   	(1.048205e+02 2.859410e+02 -2.806179e-16)	(1.039621e+02 2.860744e+02 -2.805965e-16)	(8.584512e-01 -1.333182e-01 -2.140644e-20)
0.000243091   	(1.120079e+02 2.920170e+02 -2.665870e-16)	(1.111385e+02 2.921522e+02 -2.665641e-16)	(8.694061e-01 -1.352254e-01 -2.293595e-20)
0.000295816   	(1.171305e+02 2.976039e+02 -2.745437e-16)	(1.162492e+02 2.977411e+02 -2.745186e-16)	(8.813335e-01 -1.372358e-01 -2.507533e-20)
0.000352595   	(1.220535e+02 3.054148e+02 -3.056138e-16)	(1.211602e+02 3.055544e+02 -3.055867e-16)	(8.932624e-01 -1.395655e-01 -2.706031e-20)
0.000409149   	(1.278132e+02 3.185634e+02 -3.504840e-16)	(1.269091e+02 3.187058e+02 -3.504549e-16)	(9.040980e-01 -1.424376e-01 -2.913025e-20)
0.000464171   	(1.326987e+02 3.319312e+02 -3.994875e-16)	(1.317849e+02 3.320773e+02 -3.994556e-16)	(9.137785e-01 -1.460693e-01 -3.183379e-20)
0.000516176   	(1.294800e+02 3.229955e+02 -4.056917e-16)	(1.285576e+02 3.231460e+02 -4.056569e-16)	(9.224134e-01 -1.504902e-01 -3.479903e-20)
0.000565942   	(1.227144e+02 3.047053e+02 -3.955978e-16)	(1.217842e+02 3.048608e+02 -3.955605e-16)	(9.302417e-01 -1.555090e-01 -3.727346e-20)
0.000613862   	(1.179574e+02 2.939177e+02 -3.925357e-16)	(1.170201e+02 2.940785e+02 -3.924968e-16)	(9.373736e-01 -1.608589e-01 -3.886754e-20)
0.000660435   	(1.144047e+02 2.866953e+02 -3.903000e-16)	(1.134608e+02 2.868617e+02 -3.902601e-16)	(9.439624e-01 -1.664058e-01 -3.996135e-20)
0.00070615    	(1.112839e+02 2.792962e+02 -3.887780e-16)	(1.103338e+02 2.794683e+02 -3.887374e-16)	(9.501360e-01 -1.720865e-01 -4.064131e-20)
0.000751346   	(1.088881e+02 2.725126e+02 -3.818654e-16)	(1.079321e+02 2.726904e+02 -3.818243e-16)	(9.559821e-01 -1.778342e-01 -4.109580e-20)
0.000796214   	(1.070407e+02 2.673261e+02 -3.669879e-16)	(1.060791e+02 2.675098e+02 -3.669465e-16)	(9.615661e-01 -1.836056e-01 -4.145103e-20)
0.000841103   	(1.056024e+02 2.630843e+02 -3.520287e-16)	(1.046355e+02 2.632737e+02 -3.519870e-16)	(9.669632e-01 -1.893934e-01 -4.169925e-20)
0.000886277   	(1.045762e+02 2.592636e+02 -3.391354e-16)	(1.036039e+02 2.594588e+02 -3.390936e-16)	(9.722569e-01 -1.951867e-01 -4.180247e-20)
0.000931973   	(1.027809e+02 2.547604e+02 -3.197948e-16)	(1.018034e+02 2.549614e+02 -3.197530e-16)	(9.775049e-01 -2.009901e-01 -4.173870e-20)
0.000977334   	(1.008979e+02 2.505559e+02 -2.967274e-16)	(9.991528e+01 2.507627e+02 -2.966859e-16)	(9.826596e-01 -2.067166e-01 -4.151639e-20)
0.00102204    	(9.861088e+01 2.459751e+02 -2.676489e-16)	(9.762315e+01 2.461875e+02 -2.676076e-16)	(9.877329e-01 -2.123970e-01 -4.124759e-20)
0.00106627    	(9.598822e+01 2.408493e+02 -2.336323e-16)	(9.499554e+01 2.410673e+02 -2.335911e-16)	(9.926776e-01 -2.180063e-01 -4.119515e-20)
0.00111024    	(9.232940e+01 2.326126e+02 -2.034066e-16)	(9.133142e+01 2.328364e+02 -2.033650e-16)	(9.979805e-01 -2.237770e-01 -4.163745e-20)
0.00115403    	(8.792881e+01 2.230033e+02 -1.730808e-16)	(8.692542e+01 2.232331e+02 -1.730380e-16)	(1.003393e+00 -2.297589e-01 -4.286402e-20)
0.00119779    	(8.219114e+01 2.115369e+02 -1.387471e-16)	(8.118211e+01 2.117731e+02 -1.387025e-16)	(1.009022e+00 -2.362037e-01 -4.460336e-20)
0.00124168    	(7.322984e+01 1.927610e+02 -1.028636e-16)	(7.221476e+01 1.930047e+02 -1.028175e-16)	(1.015077e+00 -2.436379e-01 -4.616839e-20)
0.00128585    	(6.351184e+01 1.743658e+02 -6.371539e-17)	(6.249022e+01 1.746178e+02 -6.366769e-17)	(1.021613e+00 -2.519514e-01 -4.769993e-20)
0.00133041    	(5.361498e+01 1.548424e+02 -5.057590e-17)	(5.258636e+01 1.551024e+02 -5.052684e-17)	(1.028619e+00 -2.599686e-01 -4.906730e-20)
0.00137551    	(4.092737e+01 1.316530e+02 -5.830351e-17)	(3.989137e+01 1.319202e+02 -5.825575e-17)	(1.035998e+00 -2.672313e-01 -4.775399e-20)
0.00142125    	(1.991468e+01 9.459610e+01 -9.212065e-17)	(1.887119e+01 9.486981e+01 -9.207556e-17)	(1.043491e+00 -2.737139e-01 -4.509635e-20)
0.00146762    	(-2.548698e+01 1.368247e+01 -1.630298e-16)	(-2.653761e+01 1.396146e+01 -1.629857e-16)	(1.050633e+00 -2.789912e-01 -4.413111e-20)
0.00151452    	(-1.046035e+02 -1.276132e+02 -2.889760e-16)	(-1.056600e+02 -1.273312e+02 -2.889297e-16)	(1.056452e+00 -2.820272e-01 -4.634789e-20)
0.00156148    	(-1.176257e+02 -1.474281e+02 -3.394851e-16)	(-1.186869e+02 -1.471444e+02 -3.394315e-16)	(1.061255e+00 -2.836857e-01 -5.360695e-20)
0.00160852    	(-1.718021e+01 4.359641e+01 -2.060992e-16)	(-1.824627e+01 4.388226e+01 -2.060420e-16)	(1.066064e+00 -2.858538e-01 -5.721767e-20)
0.00165559    	(4.341293e+01 1.739042e+02 -6.937709e-17)	(4.234245e+01 1.741928e+02 -6.931867e-17)	(1.070478e+00 -2.885813e-01 -5.841392e-20)
0.00170281    	(5.107484e+01 2.113599e+02 2.291984e-17)	(5.000059e+01 2.116511e+02 2.297814e-17)	(1.074258e+00 -2.912138e-01 -5.830003e-20)
0.00175016    	(5.461110e+01 2.465055e+02 8.006825e-17)	(5.353355e+01 2.467990e+02 8.012611e-17)	(1.077550e+00 -2.934803e-01 -5.786606e-20)
0.00179774    	(5.275979e+01 3.046378e+02 2.385654e-16)	(5.168015e+01 3.049327e+02 2.386226e-16)	(1.079633e+00 -2.949312e-01 -5.715283e-20)
0.00184559    	(4.596718e+01 4.136981e+02 5.916310e-16)	(4.488802e+01 4.139930e+02 5.916872e-16)	(1.079157e+00 -2.948783e-01 -5.625938e-20)
0.00189385    	(4.353217e+01 4.486428e+02 7.316303e-16)	(4.245433e+01 4.489368e+02 7.316849e-16)	(1.077835e+00 -2.940180e-01 -5.465235e-20)
0.00194256    	(5.354219e+01 3.223105e+02 2.982049e-16)	(5.246202e+01 3.226050e+02 2.982572e-16)	(1.080161e+00 -2.945936e-01 -5.229709e-20)
0.00199108    	(5.804081e+01 2.361934e+02 3.653571e-17)	(5.695660e+01 2.364895e+02 3.658483e-17)	(1.084212e+00 -2.960588e-01 -4.911784e-20)
0.00203931    	(6.047374e+01 2.209333e+02 -2.112443e-17)	(5.939284e+01 2.212294e+02 -2.107912e-17)	(1.080896e+00 -2.961175e-01 -4.531040e-20)
0.0020875     	(6.097626e+01 2.214994e+02 -2.181383e-17)	(5.989905e+01 2.217956e+02 -2.177291e-17)	(1.077207e+00 -2.961496e-01 -4.092672e-20)
0.00213557    	(6.239754e+01 2.231385e+02 -2.399430e-17)	(6.132432e+01 2.234346e+02 -2.395811e-17)	(1.073225e+00 -2.961413e-01 -3.618294e-20)
0.0021837     	(6.327065e+01 2.250017e+02 -2.260012e-17)	(6.220170e+01 2.252978e+02 -2.256892e-17)	(1.068958e+00 -2.960848e-01 -3.120148e-20)
0.00223184    	(6.429357e+01 2.270520e+02 -2.162196e-17)	(6.322919e+01 2.273480e+02 -2.159582e-17)	(1.064387e+00 -2.959826e-01 -2.613590e-20)
0.00228012    	(6.446084e+01 2.275334e+02 -1.829183e-17)	(6.340122e+01 2.278292e+02 -1.827055e-17)	(1.059617e+00 -2.958238e-01 -2.128399e-20)
0.00232847    	(6.507850e+01 2.286195e+02 -1.718197e-17)	(6.402389e+01 2.289151e+02 -1.716530e-17)	(1.054603e+00 -2.956346e-01 -1.667446e-20)
0.00237699    	(6.570941e+01 2.300787e+02 -1.611831e-17)	(6.466005e+01 2.303740e+02 -1.610575e-17)	(1.049355e+00 -2.953730e-01 -1.256178e-20)
0.00242564    	(6.616950e+01 2.310004e+02 -1.509198e-17)	(6.512564e+01 2.312954e+02 -1.508292e-17)	(1.043853e+00 -2.950207e-01 -9.058343e-21)
0.00247452    	(6.628214e+01 2.313208e+02 -1.187864e-17)	(6.524401e+01 2.316155e+02 -1.187249e-17)	(1.038130e+00 -2.946077e-01 -6.151379e-21)
0.0025235     	(6.648783e+01 2.319591e+02 -8.965186e-18)	(6.545552e+01 2.322532e+02 -8.961199e-18)	(1.032309e+00 -2.941341e-01 -3.986678e-21)
0.00257249    	(6.651226e+01 2.319436e+02 -6.551682e-18)	(6.548593e+01 2.322372e+02 -6.549261e-18)	(1.026332e+00 -2.935967e-01 -2.420652e-21)
0.00262149    	(6.682395e+01 2.323398e+02 -5.018302e-18)	(6.580372e+01 2.326328e+02 -5.016738e-18)	(1.020227e+00 -2.929666e-01 -1.563743e-21)
0.00267053    	(6.680568e+01 2.322877e+02 -3.464850e-18)	(6.579166e+01 2.325799e+02 -3.463513e-18)	(1.014024e+00 -2.922679e-01 -1.336348e-21)
0.00271951    	(6.694035e+01 2.325426e+02 -2.734664e-18)	(6.593261e+01 2.328341e+02 -2.732975e-18)	(1.007736e+00 -2.914971e-01 -1.689442e-21)
0.00276842    	(6.750422e+01 2.336035e+02 -3.221043e-18)	(6.650289e+01 2.338941e+02 -3.218477e-18)	(1.001329e+00 -2.906100e-01 -2.565757e-21)
0.00281728    	(6.778237e+01 2.343103e+02 -4.657468e-18)	(6.678754e+01 2.346000e+02 -4.653623e-18)	(9.948336e-01 -2.896598e-01 -3.845194e-21)
0.00286609    	(6.802141e+01 2.348655e+02 -7.355863e-18)	(6.703301e+01 2.351542e+02 -7.350515e-18)	(9.884058e-01 -2.886526e-01 -5.348113e-21)
0.00291488    	(6.833496e+01 2.354515e+02 -1.154932e-17)	(6.735301e+01 2.357391e+02 -1.154227e-17)	(9.819461e-01 -2.875472e-01 -7.053417e-21)
0.00296366    	(6.847297e+01 2.357833e+02 -1.799076e-17)	(6.749749e+01 2.360696e+02 -1.798189e-17)	(9.754796e-01 -2.863731e-01 -8.874684e-21)
0.00301243    	(6.878630e+01 2.364141e+02 -2.447156e-17)	(6.781719e+01 2.366992e+02 -2.446075e-17)	(9.691058e-01 -2.851455e-01 -1.081341e-20)
0.00306119    	(6.903159e+01 2.371071e+02 -3.046605e-17)	(6.806886e+01 2.373910e+02 -3.045343e-17)	(9.627334e-01 -2.838787e-01 -1.262153e-20)
0.00310995    	(6.925818e+01 2.377317e+02 -3.703525e-17)	(6.830176e+01 2.380143e+02 -3.702098e-17)	(9.564223e-01 -2.825528e-01 -1.427537e-20)
0.00315871    	(6.955880e+01 2.383334e+02 -4.303189e-17)	(6.860855e+01 2.386146e+02 -4.301630e-17)	(9.502418e-01 -2.812090e-01 -1.558777e-20)
0.0032075     	(6.965946e+01 2.387278e+02 -4.711282e-17)	(6.871535e+01 2.390077e+02 -4.709688e-17)	(9.441095e-01 -2.798463e-01 -1.593665e-20)
0.00325628    	(6.987945e+01 2.392981e+02 -5.170286e-17)	(6.894137e+01 2.395766e+02 -5.168744e-17)	(9.380788e-01 -2.784538e-01 -1.542213e-20)
0.00330507    	(7.012635e+01 2.397209e+02 -5.634221e-17)	(6.919417e+01 2.399979e+02 -5.632814e-17)	(9.321833e-01 -2.770471e-01 -1.407544e-20)
0.00335388    	(7.033617e+01 2.403142e+02 -6.020266e-17)	(6.940976e+01 2.405898e+02 -6.019116e-17)	(9.264123e-01 -2.756547e-01 -1.149394e-20)
0.00340272    	(7.042543e+01 2.406945e+02 -6.371356e-17)	(6.950460e+01 2.409688e+02 -6.370529e-17)	(9.208263e-01 -2.742958e-01 -8.271822e-21)
0.0034516     	(7.061333e+01 2.411679e+02 -6.702644e-17)	(6.969794e+01 2.414408e+02 -6.702270e-17)	(9.153894e-01 -2.729370e-01 -3.739254e-21)
0.00350056    	(7.056406e+01 2.413822e+02 -6.864893e-17)	(6.965393e+01 2.416538e+02 -6.865062e-17)	(9.101214e-01 -2.715699e-01 1.690856e-21)
0.00354957    	(7.072406e+01 2.419322e+02 -7.123382e-17)	(6.981900e+01 2.422024e+02 -7.124051e-17)	(9.050622e-01 -2.702535e-01 6.688373e-21)
0.00359866    	(7.083454e+01 2.423707e+02 -7.297772e-17)	(6.993433e+01 2.426397e+02 -7.298957e-17)	(9.002021e-01 -2.689822e-01 1.185077e-20)
0.00364782    	(7.105481e+01 2.430457e+02 -7.288599e-17)	(7.015935e+01 2.433134e+02 -7.290340e-17)	(8.954531e-01 -2.677000e-01 1.741384e-20)
0.00369705    	(7.104881e+01 2.433639e+02 -7.299181e-17)	(7.015805e+01 2.436303e+02 -7.301445e-17)	(8.907581e-01 -2.664108e-01 2.263556e-20)
0.00374636    	(7.117082e+01 2.438654e+02 -7.398409e-17)	(7.028457e+01 2.441306e+02 -7.401145e-17)	(8.862460e-01 -2.651640e-01 2.735503e-20)
0.00379572    	(7.133390e+01 2.443472e+02 -7.416708e-17)	(7.045206e+01 2.446111e+02 -7.419825e-17)	(8.818399e-01 -2.639394e-01 3.116569e-20)
0.00384461    	(7.129981e+01 2.446125e+02 -7.354297e-17)	(7.042224e+01 2.448752e+02 -7.357666e-17)	(8.775702e-01 -2.627532e-01 3.369363e-20)
0.003893      	(7.127826e+01 2.448347e+02 -7.305570e-17)	(7.040482e+01 2.450963e+02 -7.309082e-17)	(8.734356e-01 -2.616055e-01 3.511740e-20)
0.00394117    	(7.138774e+01 2.451701e+02 -7.346916e-17)	(7.051834e+01 2.454306e+02 -7.350458e-17)	(8.693988e-01 -2.604808e-01 3.542017e-20)
0.0039893     	(7.131439e+01 2.453758e+02 -7.438975e-17)	(7.044906e+01 2.456352e+02 -7.442427e-17)	(8.653330e-01 -2.593414e-01 3.452773e-20)
0.00403747    	(7.122688e+01 2.454832e+02 -7.526326e-17)	(7.036558e+01 2.457414e+02 -7.529549e-17)	(8.612923e-01 -2.582004e-01 3.222784e-20)
0.00408577    	(7.096017e+01 2.453683e+02 -7.444308e-17)	(7.010285e+01 2.456254e+02 -7.447156e-17)	(8.573176e-01 -2.570819e-01 2.848102e-20)
0.00413423    	(7.092010e+01 2.455229e+02 -7.696015e-17)	(7.006679e+01 2.457788e+02 -7.698367e-17)	(8.533164e-01 -2.559402e-01 2.352388e-20)
0.00418292    	(7.074952e+01 2.455858e+02 -7.950217e-17)	(6.990023e+01 2.458405e+02 -7.951945e-17)	(8.492867e-01 -2.547446e-01 1.728287e-20)
0.00423124    	(7.031870e+01 2.453063e+02 -8.122541e-17)	(6.947327e+01 2.455598e+02 -8.123536e-17)	(8.454281e-01 -2.535716e-01 9.955781e-21)
0.00427908    	(7.004378e+01 2.452511e+02 -8.229187e-17)	(6.920210e+01 2.455035e+02 -8.229373e-17)	(8.416811e-01 -2.523931e-01 1.861410e-21)
0.00432653    	(7.002480e+01 2.455393e+02 -8.544534e-17)	(6.918681e+01 2.457905e+02 -8.543850e-17)	(8.379885e-01 -2.512022e-01 -6.843501e-21)
0.00437369    	(6.978400e+01 2.455370e+02 -8.721544e-17)	(6.894968e+01 2.457870e+02 -8.720036e-17)	(8.343155e-01 -2.499959e-01 -1.508099e-20)
0.00442059    	(6.964344e+01 2.456238e+02 -8.821919e-17)	(6.881270e+01 2.458726e+02 -8.819670e-17)	(8.307456e-01 -2.488058e-01 -2.248869e-20)
0.0044673     	(6.969541e+01 2.459961e+02 -9.035028e-17)	(6.886822e+01 2.462438e+02 -9.032154e-17)	(8.271822e-01 -2.476030e-01 -2.873932e-20)
0.00451388    	(6.980798e+01 2.463786e+02 -9.182651e-17)	(6.898435e+01 2.466249e+02 -9.179403e-17)	(8.236268e-01 -2.463632e-01 -3.247870e-20)
0.00456032    	(6.980974e+01 2.467412e+02 -9.055184e-17)	(6.898962e+01 2.469863e+02 -9.051580e-17)	(8.201200e-01 -2.450981e-01 -3.604086e-20)
0.00460663    	(6.980322e+01 2.470386e+02 -9.008873e-17)	(6.898652e+01 2.472825e+02 -9.004931e-17)	(8.167006e-01 -2.438406e-01 -3.941941e-20)
0.0046528     	(6.990878e+01 2.473768e+02 -8.993652e-17)	(6.909544e+01 2.476194e+02 -8.989444e-17)	(8.133386e-01 -2.425857e-01 -4.208479e-20)
0.00469884    	(7.007524e+01 2.478602e+02 -8.871039e-17)	(6.926524e+01 2.481015e+02 -8.866589e-17)	(8.099992e-01 -2.413000e-01 -4.449323e-20)
0.00474479    	(7.017577e+01 2.482801e+02 -8.715734e-17)	(6.936911e+01 2.485201e+02 -8.711031e-17)	(8.066557e-01 -2.400028e-01 -4.702893e-20)
0.00479068    	(7.011585e+01 2.484430e+02 -8.602799e-17)	(6.931242e+01 2.486817e+02 -8.597845e-17)	(8.034268e-01 -2.387444e-01 -4.953988e-20)
0.00483656    	(7.045653e+01 2.492371e+02 -8.545482e-17)	(6.965631e+01 2.494746e+02 -8.540250e-17)	(8.002166e-01 -2.374904e-01 -5.231222e-20)
0.00488247    	(7.077936e+01 2.500032e+02 -8.490574e-17)	(6.998234e+01 2.502395e+02 -8.485031e-17)	(7.970182e-01 -2.362274e-01 -5.542355e-20)
0.00492844    	(7.077160e+01 2.502852e+02 -8.424347e-17)	(6.997774e+01 2.505201e+02 -8.418469e-17)	(7.938560e-01 -2.349662e-01 -5.878862e-20)
0.00497454    	(7.108606e+01 2.509491e+02 -8.515499e-17)	(7.029538e+01 2.511828e+02 -8.509258e-17)	(7.906764e-01 -2.337010e-01 -6.241373e-20)
0.00502083    	(7.132993e+01 2.516438e+02 -8.505316e-17)	(7.054242e+01 2.518763e+02 -8.498708e-17)	(7.875099e-01 -2.324546e-01 -6.607520e-20)
0.00506734    	(7.131913e+01 2.518759e+02 -8.586618e-17)	(7.053475e+01 2.521071e+02 -8.579643e-17)	(7.843841e-01 -2.312117e-01 -6.974907e-20)
0.00511409    	(7.142661e+01 2.522904e+02 -8.624400e-17)	(7.064535e+01 2.525204e+02 -8.617057e-17)	(7.812511e-01 -2.299627e-01 -7.343451e-20)
0.00516111    	(7.178298e+01 2.530548e+02 -8.697452e-17)	(7.100498e+01 2.532835e+02 -8.689738e-17)	(7.780006e-01 -2.287005e-01 -7.713213e-20)
0.00520843    	(7.186859e+01 2.534545e+02 -8.934008e-17)	(7.109379e+01 2.536819e+02 -8.925941e-17)	(7.748054e-01 -2.274382e-01 -8.067479e-20)
0.00525606    	(7.182088e+01 2.536494e+02 -8.988077e-17)	(7.104920e+01 2.538756e+02 -8.979706e-17)	(7.716760e-01 -2.261727e-01 -8.370954e-20)
0.00530372    	(7.211419e+01 2.544057e+02 -8.987491e-17)	(7.134564e+01 2.546306e+02 -8.978838e-17)	(7.685426e-01 -2.249159e-01 -8.653547e-20)
0.00535124    	(7.228365e+01 2.549760e+02 -9.047188e-17)	(7.151820e+01 2.551997e+02 -9.038294e-17)	(7.654473e-01 -2.236835e-01 -8.894490e-20)
0.00539863    	(7.233882e+01 2.553040e+02 -9.163544e-17)	(7.157641e+01 2.555264e+02 -9.154479e-17)	(7.624086e-01 -2.224375e-01 -9.065423e-20)
0.00544589    	(7.234131e+01 2.555262e+02 -9.039464e-17)	(7.158187e+01 2.557473e+02 -9.030316e-17)	(7.594428e-01 -2.211783e-01 -9.148744e-20)
0.00549302    	(7.275719e+01 2.563698e+02 -8.919692e-17)	(7.200070e+01 2.565898e+02 -8.910496e-17)	(7.564959e-01 -2.199428e-01 -9.195312e-20)
0.00554004    	(7.297194e+01 2.569918e+02 -8.836965e-17)	(7.221834e+01 2.572105e+02 -8.827807e-17)	(7.536021e-01 -2.187163e-01 -9.158967e-20)
0.00558692    	(7.299803e+01 2.572327e+02 -8.561535e-17)	(7.224733e+01 2.574501e+02 -8.552493e-17)	(7.506996e-01 -2.174483e-01 -9.042564e-20)
0.00563368    	(7.344634e+01 2.581175e+02 -7.847895e-17)	(7.269857e+01 2.583336e+02 -7.839046e-17)	(7.477747e-01 -2.161688e-01 -8.849158e-20)
0.00568033    	(7.377157e+01 2.588210e+02 -6.869966e-17)	(7.302669e+01 2.590359e+02 -6.861385e-17)	(7.448861e-01 -2.149181e-01 -8.581148e-20)
0.00572686    	(7.409049e+01 2.594464e+02 -5.830390e-17)	(7.334847e+01 2.596601e+02 -5.822178e-17)	(7.420198e-01 -2.136652e-01 -8.212057e-20)
0.00577328    	(7.430969e+01 2.600556e+02 -4.621380e-17)	(7.357052e+01 2.602680e+02 -4.613597e-17)	(7.391636e-01 -2.123872e-01 -7.783186e-20)
0.00581962    	(7.481839e+01 2.610896e+02 -2.814956e-17)	(7.408209e+01 2.613007e+02 -2.807711e-17)	(7.362966e-01 -2.111115e-01 -7.245474e-20)
0.00586593    	(7.514782e+01 2.618899e+02 -8.757937e-18)	(7.441439e+01 2.620997e+02 -8.691526e-18)	(7.334273e-01 -2.098427e-01 -6.641116e-20)
0.00591218    	(7.540133e+01 2.625591e+02 1.047676e-17)	(7.467077e+01 2.627676e+02 1.053686e-17)	(7.305554e-01 -2.085591e-01 -6.010002e-20)
0.00595842    	(7.577434e+01 2.633440e+02 3.084382e-17)	(7.504663e+01 2.635513e+02 3.089739e-17)	(7.277095e-01 -2.072862e-01 -5.357732e-20)
0.00600465    	(7.609048e+01 2.641553e+02 5.073535e-17)	(7.536558e+01 2.643613e+02 5.078204e-17)	(7.249034e-01 -2.060121e-01 -4.669466e-20)
0.00605091    	(7.655724e+01 2.650557e+02 6.887823e-17)	(7.583515e+01 2.652604e+02 6.891812e-17)	(7.220901e-01 -2.047252e-01 -3.989131e-20)
0.00609717    	(7.686848e+01 2.657316e+02 8.370043e-17)	(7.614919e+01 2.659350e+02 8.373542e-17)	(7.192933e-01 -2.034201e-01 -3.499148e-20)
0.00614345    	(7.723213e+01 2.665757e+02 9.822306e-17)	(7.651557e+01 2.667778e+02 9.825398e-17)	(7.165607e-01 -2.021361e-01 -3.091750e-20)
0.00618978    	(7.765409e+01 2.673642e+02 1.079200e-16)	(7.694023e+01 2.675650e+02 1.079473e-16)	(7.138581e-01 -2.008425e-01 -2.735177e-20)
0.00623615    	(7.809321e+01 2.682177e+02 1.158560e-16)	(7.738205e+01 2.684172e+02 1.158803e-16)	(7.111565e-01 -1.995429e-01 -2.430203e-20)
0.00628257    	(7.854439e+01 2.690308e+02 1.195877e-16)	(7.783589e+01 2.692291e+02 1.196105e-16)	(7.084966e-01 -1.982590e-01 -2.277047e-20)
0.00632903    	(7.892244e+01 2.698586e+02 1.223409e-16)	(7.821655e+01 2.700556e+02 1.223635e-16)	(7.058889e-01 -1.969763e-01 -2.256194e-20)
0.00637556    	(7.925726e+01 2.704792e+02 1.240992e-16)	(7.855396e+01 2.706749e+02 1.241219e-16)	(7.032999e-01 -1.956757e-01 -2.269492e-20)
0.00642216    	(7.971217e+01 2.715664e+02 1.255360e-16)	(7.901144e+01 2.717607e+02 1.255588e-16)	(7.007310e-01 -1.943784e-01 -2.278359e-20)
0.00646884    	(8.015344e+01 2.724490e+02 1.231907e-16)	(7.945524e+01 2.726421e+02 1.232144e-16)	(6.982017e-01 -1.931114e-01 -2.364474e-20)
0.00651558    	(8.048540e+01 2.731617e+02 1.226645e-16)	(7.978973e+01 2.733535e+02 1.226892e-16)	(6.956650e-01 -1.918337e-01 -2.463802e-20)
0.00656242    	(8.076745e+01 2.738086e+02 1.231934e-16)	(8.007431e+01 2.739992e+02 1.232189e-16)	(6.931323e-01 -1.905375e-01 -2.550677e-20)
0.00660935    	(8.112395e+01 2.744735e+02 1.245703e-16)	(8.043331e+01 2.746627e+02 1.245967e-16)	(6.906451e-01 -1.892687e-01 -2.637646e-20)
0.00665637    	(8.147295e+01 2.752050e+02 1.275981e-16)	(8.078479e+01 2.753930e+02 1.276252e-16)	(6.881527e-01 -1.880189e-01 -2.707633e-20)
0.00670349    	(8.179833e+01 2.759258e+02 1.300919e-16)	(8.111271e+01 2.761126e+02 1.301196e-16)	(6.856238e-01 -1.867458e-01 -2.772793e-20)
0.00675073    	(8.219845e+01 2.766944e+02 1.348178e-16)	(8.151535e+01 2.768799e+02 1.348454e-16)	(6.830985e-01 -1.854850e-01 -2.761919e-20)
0.00679809    	(8.240004e+01 2.772824e+02 1.404057e-16)	(8.171946e+01 2.774666e+02 1.404331e-16)	(6.805849e-01 -1.842473e-01 -2.734040e-20)
0.00684557    	(8.261552e+01 2.778473e+02 1.480554e-16)	(8.193747e+01 2.780303e+02 1.480818e-16)	(6.780443e-01 -1.830042e-01 -2.647508e-20)
0.00689307    	(8.314514e+01 2.787593e+02 1.548330e-16)	(8.246963e+01 2.789411e+02 1.548578e-16)	(6.755089e-01 -1.817789e-01 -2.479910e-20)
0.00694057    	(8.349381e+01 2.796181e+02 1.649455e-16)	(8.282080e+01 2.797987e+02 1.649684e-16)	(6.730099e-01 -1.805689e-01 -2.284810e-20)
0.006988      	(8.366031e+01 2.801930e+02 1.761514e-16)	(8.298979e+01 2.803723e+02 1.761718e-16)	(6.705233e-01 -1.793752e-01 -2.041083e-20)
0.00703539    	(8.413565e+01 2.811496e+02 1.819727e-16)	(8.346760e+01 2.813278e+02 1.819905e-16)	(6.680534e-01 -1.781999e-01 -1.784824e-20)
0.00708272    	(8.447742e+01 2.818918e+02 1.924959e-16)	(8.381178e+01 2.820688e+02 1.925110e-16)	(6.656406e-01 -1.770454e-01 -1.510214e-20)
0.00713001    	(8.469437e+01 2.824946e+02 2.042354e-16)	(8.403111e+01 2.826705e+02 2.042478e-16)	(6.632556e-01 -1.758833e-01 -1.232759e-20)
0.00717725    	(8.516704e+01 2.834266e+02 2.144907e-16)	(8.450618e+01 2.836013e+02 2.145005e-16)	(6.608656e-01 -1.747486e-01 -9.880884e-21)
0.00722446    	(8.559252e+01 2.842611e+02 2.247223e-16)	(8.493402e+01 2.844347e+02 2.247302e-16)	(6.585018e-01 -1.736250e-01 -7.959528e-21)
0.00727165    	(8.580416e+01 2.848201e+02 2.372118e-16)	(8.514798e+01 2.849926e+02 2.372182e-16)	(6.561836e-01 -1.725229e-01 -6.456299e-21)
0.00731882    	(8.625724e+01 2.856142e+02 2.473260e-16)	(8.560337e+01 2.857856e+02 2.473313e-16)	(6.538728e-01 -1.714235e-01 -5.282919e-21)
0.00736598    	(8.672973e+01 2.865424e+02 2.567704e-16)	(8.607819e+01 2.867127e+02 2.567748e-16)	(6.515446e-01 -1.703374e-01 -4.484843e-21)
0.00741312    	(8.706188e+01 2.872834e+02 2.682900e-16)	(8.641263e+01 2.874527e+02 2.682940e-16)	(6.492583e-01 -1.692742e-01 -4.003993e-21)
0.00746022    	(8.750835e+01 2.882725e+02 2.774751e-16)	(8.686134e+01 2.884407e+02 2.774788e-16)	(6.470130e-01 -1.682344e-01 -3.644271e-21)
0.00750726    	(8.800581e+01 2.893250e+02 2.857876e-16)	(8.736104e+01 2.894922e+02 2.857909e-16)	(6.447764e-01 -1.671982e-01 -3.295322e-21)
0.00755429    	(8.841450e+01 2.901754e+02 2.914262e-16)	(8.777196e+01 2.903416e+02 2.914294e-16)	(6.425385e-01 -1.661704e-01 -3.118405e-21)
0.00760126    	(8.886324e+01 2.910738e+02 2.962797e-16)	(8.822289e+01 2.912389e+02 2.962826e-16)	(6.403527e-01 -1.651622e-01 -2.959933e-21)
0.00764821    	(8.941137e+01 2.921175e+02 2.983629e-16)	(8.877317e+01 2.922816e+02 2.983657e-16)	(6.381957e-01 -1.641654e-01 -2.851785e-21)
0.00769514    	(8.987043e+01 2.930511e+02 3.012438e-16)	(8.923437e+01 2.932142e+02 3.012467e-16)	(6.360613e-01 -1.631615e-01 -2.819042e-21)
0.00774204    	(9.025302e+01 2.938880e+02 3.015870e-16)	(8.961909e+01 2.940502e+02 3.015898e-16)	(6.339317e-01 -1.621741e-01 -2.773022e-21)
0.00778894    	(9.087837e+01 2.949812e+02 2.960159e-16)	(9.024653e+01 2.951424e+02 2.960187e-16)	(6.318441e-01 -1.612153e-01 -2.872969e-21)
0.00783582    	(9.123464e+01 2.956975e+02 2.918496e-16)	(9.060488e+01 2.958577e+02 2.918525e-16)	(6.297653e-01 -1.602526e-01 -2.961225e-21)
0.0078827     	(9.158938e+01 2.965347e+02 2.893487e-16)	(9.096171e+01 2.966940e+02 2.893516e-16)	(6.276718e-01 -1.592810e-01 -2.889984e-21)
0.00792958    	(9.206792e+01 2.973648e+02 2.795724e-16)	(9.144234e+01 2.975232e+02 2.795751e-16)	(6.255881e-01 -1.583380e-01 -2.680736e-21)
0.00797646    	(9.243991e+01 2.980987e+02 2.688634e-16)	(9.181633e+01 2.982561e+02 2.688656e-16)	(6.235855e-01 -1.574214e-01 -2.244171e-21)
0.00802327    	(9.266147e+01 2.987188e+02 2.594172e-16)	(9.203986e+01 2.988753e+02 2.594186e-16)	(6.216147e-01 -1.565051e-01 -1.462659e-21)
0.00807003    	(9.314425e+01 2.996621e+02 2.491552e-16)	(9.252458e+01 2.998177e+02 2.491554e-16)	(6.196725e-01 -1.555842e-01 -2.253746e-22)
0.00811676    	(9.357169e+01 3.006105e+02 2.377205e-16)	(9.295393e+01 3.007652e+02 2.377190e-16)	(6.177586e-01 -1.546881e-01 1.551554e-21)
0.00816345    	(9.383972e+01 3.012397e+02 2.237243e-16)	(9.322381e+01 3.013935e+02 2.237205e-16)	(6.159138e-01 -1.538187e-01 3.873179e-21)
0.00821012    	(9.404583e+01 3.017617e+02 2.099693e-16)	(9.343173e+01 3.019147e+02 2.099626e-16)	(6.141049e-01 -1.529438e-01 6.651331e-21)
0.00825673    	(9.469840e+01 3.028005e+02 1.935163e-16)	(9.408609e+01 3.029526e+02 1.935064e-16)	(6.123092e-01 -1.520604e-01 9.901980e-21)
0.00830333    	(9.498750e+01 3.034769e+02 1.794332e-16)	(9.437696e+01 3.036281e+02 1.794197e-16)	(6.105364e-01 -1.511992e-01 1.350563e-20)
0.0083499     	(9.516100e+01 3.039997e+02 1.622986e-16)	(9.455219e+01 3.041500e+02 1.622813e-16)	(6.088187e-01 -1.503618e-01 1.735954e-20)
0.00839647    	(9.547838e+01 3.046071e+02 1.457117e-16)	(9.487125e+01 3.047566e+02 1.456905e-16)	(6.071238e-01 -1.495223e-01 2.126151e-20)
0.00844301    	(9.578751e+01 3.051457e+02 1.297748e-16)	(9.518206e+01 3.052944e+02 1.297498e-16)	(6.054521e-01 -1.486716e-01 2.507017e-20)
0.00848956    	(9.610056e+01 3.057590e+02 1.109484e-16)	(9.549676e+01 3.059068e+02 1.109199e-16)	(6.037973e-01 -1.478396e-01 2.849848e-20)
0.00853608    	(9.613408e+01 3.061142e+02 9.371746e-17)	(9.553190e+01 3.062613e+02 9.368564e-17)	(6.021879e-01 -1.470344e-01 3.181650e-20)
0.00858261    	(9.640690e+01 3.065475e+02 7.485466e-17)	(9.580632e+01 3.066937e+02 7.482007e-17)	(6.005830e-01 -1.462264e-01 3.459159e-20)
0.00862913    	(9.652139e+01 3.067931e+02 5.792132e-17)	(9.592241e+01 3.069385e+02 5.788446e-17)	(5.989779e-01 -1.454034e-01 3.686009e-20)
0.00867565    	(9.675216e+01 3.071668e+02 3.919839e-17)	(9.615480e+01 3.073114e+02 3.916005e-17)	(5.973652e-01 -1.446030e-01 3.833952e-20)
0.0087222     	(9.665353e+01 3.071812e+02 2.119792e-17)	(9.605773e+01 3.073250e+02 2.115870e-17)	(5.957979e-01 -1.438345e-01 3.921888e-20)
0.00876877    	(9.689691e+01 3.074932e+02 5.285506e-18)	(9.630266e+01 3.076362e+02 5.245920e-18)	(5.942536e-01 -1.430739e-01 3.958664e-20)
0.00881536    	(9.703342e+01 3.077128e+02 -8.789912e-18)	(9.644072e+01 3.078551e+02 -8.829395e-18)	(5.927052e-01 -1.423092e-01 3.948273e-20)
0.00886198    	(9.724917e+01 3.080689e+02 -2.115668e-17)	(9.665804e+01 3.082105e+02 -2.119541e-17)	(5.911305e-01 -1.415607e-01 3.872938e-20)
0.00890865    	(9.721454e+01 3.080360e+02 -3.442166e-17)	(9.662495e+01 3.081769e+02 -3.445885e-17)	(5.895930e-01 -1.408466e-01 3.719085e-20)
0.00895536    	(9.744680e+01 3.083310e+02 -4.625989e-17)	(9.685873e+01 3.084711e+02 -4.629539e-17)	(5.880646e-01 -1.401335e-01 3.549358e-20)
0.00900212    	(9.756335e+01 3.084019e+02 -5.674973e-17)	(9.697682e+01 3.085413e+02 -5.678329e-17)	(5.865247e-01 -1.394149e-01 3.355387e-20)
0.00904896    	(9.779746e+01 3.087297e+02 -6.595068e-17)	(9.721251e+01 3.088684e+02 -6.598189e-17)	(5.849474e-01 -1.387125e-01 3.120622e-20)
0.00909586    	(9.783320e+01 3.088721e+02 -7.733493e-17)	(9.724980e+01 3.090101e+02 -7.736327e-17)	(5.834051e-01 -1.380426e-01 2.834277e-20)
0.00914284    	(9.801209e+01 3.092129e+02 -9.145616e-17)	(9.743021e+01 3.093503e+02 -9.148152e-17)	(5.818732e-01 -1.373696e-01 2.536425e-20)
0.00918989    	(9.826600e+01 3.095918e+02 -1.051189e-16)	(9.768569e+01 3.097285e+02 -1.051411e-16)	(5.803158e-01 -1.366950e-01 2.220433e-20)
0.00923702    	(9.851918e+01 3.100021e+02 -1.209715e-16)	(9.794046e+01 3.101382e+02 -1.209903e-16)	(5.787189e-01 -1.360212e-01 1.875318e-20)
0.00928424    	(9.869233e+01 3.103187e+02 -1.444490e-16)	(9.811518e+01 3.104541e+02 -1.444641e-16)	(5.771462e-01 -1.353716e-01 1.515341e-20)
0.00933154    	(9.883404e+01 3.107567e+02 -1.701826e-16)	(9.825844e+01 3.108914e+02 -1.701942e-16)	(5.756035e-01 -1.347134e-01 1.164210e-20)
0.00937893    	(9.923054e+01 3.112871e+02 -1.984219e-16)	(9.865651e+01 3.114211e+02 -1.984300e-16)	(5.740322e-01 -1.340576e-01 8.039826e-21)
0.00942643    	(9.948830e+01 3.116748e+02 -2.323668e-16)	(9.891588e+01 3.118082e+02 -2.323711e-16)	(5.724219e-01 -1.333967e-01 4.285247e-21)
0.0094739     	(9.972415e+01 3.123008e+02 -2.710124e-16)	(9.915334e+01 3.124336e+02 -2.710132e-16)	(5.708131e-01 -1.327397e-01 7.923305e-22)
0.00952135    	(1.000281e+02 3.131099e+02 -3.200912e-16)	(9.945883e+01 3.132419e+02 -3.200888e-16)	(5.692625e-01 -1.320761e-01 -2.407098e-21)
0.00956877    	(1.006697e+02 3.141758e+02 -3.670900e-16)	(1.001020e+02 3.143072e+02 -3.670846e-16)	(5.676968e-01 -1.314231e-01 -5.477111e-21)
0.00961619    	(1.011603e+02 3.151369e+02 -4.175346e-16)	(1.005942e+02 3.152676e+02 -4.175260e-16)	(5.660919e-01 -1.307481e-01 -8.587393e-21)
0.00966358    	(1.013704e+02 3.157957e+02 -4.669376e-16)	(1.008059e+02 3.159257e+02 -4.669262e-16)	(5.644841e-01 -1.300495e-01 -1.138910e-20)
0.00971098    	(1.017931e+02 3.168208e+02 -5.233986e-16)	(1.012301e+02 3.169502e+02 -5.233851e-16)	(5.629288e-01 -1.293503e-01 -1.349304e-20)
0.00975837    	(1.024497e+02 3.179998e+02 -5.755339e-16)	(1.018883e+02 3.181285e+02 -5.755184e-16)	(5.613545e-01 -1.286629e-01 -1.555727e-20)
0.00980577    	(1.029223e+02 3.190332e+02 -6.207910e-16)	(1.023626e+02 3.191611e+02 -6.207734e-16)	(5.597302e-01 -1.279518e-01 -1.764719e-20)