# Moment      
# CofR        : (5.000000e+00 5.000000e-03 0.000000e+00)
#
# Time        	(total_x total_y total_z)	(pressure_x pressure_y pressure_z)	(viscous_x viscous_y viscous_z)
1.20005e-05   	(-6.461609e+03 3.739341e+03 -6.377974e+05)	(-6.461615e+03 3.739298e+03 -6.377980e+05)	(5.562542e-03 4.386859e-02 5.670094e-01)
2.64017e-05   	(-2.200596e+02 1.558559e+02 -2.174060e+04)	(-2.200661e+02 1.558127e+02 -2.174127e+04)	(6.550022e-03 4.317230e-02 6.646251e-01)
4.36833e-05   	(-3.006465e+01 2.744324e+01 -2.965178e+03)	(-3.007173e+01 2.739988e+01 -2.965894e+03)	(7.076601e-03 4.335313e-02 7.167328e-01)
6.44211e-05   	(-1.667889e+01 1.030715e+01 -1.649725e+03)	(-1.668624e+01 1.026345e+01 -1.650469e+03)	(7.348772e-03 4.369862e-02 7.436774e-01)
8.93055e-05   	(-1.309005e+01 5.120183e+00 -1.297441e+03)	(-1.309759e+01 5.076060e+00 -1.298204e+03)	(7.538377e-03 4.412284e-02 7.624548e-01)
0.000118366   	(-1.307956e+01 4.071713e+00 -1.297009e+03)	(-1.308726e+01 4.027094e+00 -1.297787e+03)	(7.693378e-03 4.461871e-02 7.778187e-01)
0.000151616   	(-1.357595e+01 4.341528e+00 -1.345993e+03)	(-1.358377e+01 4.296324e+00 -1.346784e+03)	(7.827850e-03 4.520423e-02 7.911717e-01)
0.000189054   	(-1.444185e+01 5.043929e+00 -1.431344e+03)	(-1.444981e+01 4.998021e+00 -1.432147e+03)	(7.952335e-03 4.590860e-02 8.035671e-01)
0.000230677   	(-1.514448e+01 5.534326e+00 -1.500744e+03)	(-1.515255e+01 5.487600e+00 -1.501560e+03)	(8.073331e-03 4.672660e-02 8.156423e-01)
0.000272509   	(-1.567825e+01 5.898020e+00 -1.553577e+03)	(-1.568645e+01 5.850446e+00 -1.554405e+03)	(8.191243e-03 4.757479e-02 8.274312e-01)
0.000314271   	(-1.600399e+01 6.132257e+00 -1.585847e+03)	(-1.601230e+01 6.083836e+00 -1.586686e+03)	(8.311121e-03 4.842067e-02 8.394317e-01)
0.000355928   	(-1.586792e+01 6.160715e+00 -1.572489e+03)	(-1.587637e+01 6.111452e+00 -1.573342e+03)	(8.447205e-03 4.926317e-02 8.530630e-01)
0.000397464   	(-1.697651e+01 6.519760e+00 -1.682234e+03)	(-1.698511e+01 6.469675e+00 -1.683103e+03)	(8.602364e-03 5.008490e-02 8.686088e-01)
0.000437675   	(-1.890291e+01 7.075135e+00 -1.873158e+03)	(-1.891168e+01 7.024278e+00 -1.874044e+03)	(8.773956e-03 5.085606e-02 8.857981e-01)
0.00047625    	(-1.740857e+01 6.528482e+00 -1.725930e+03)	(-1.741755e+01 6.476892e+00 -1.726836e+03)	(8.975112e-03 5.159033e-02 9.059387e-01)
0.000513358   	(-1.560324e+01 5.903757e+00 -1.547614e+03)	(-1.561245e+01 5.851477e+00 -1.548543e+03)	(9.201200e-03 5.228024e-02 9.285688e-01)
0.000549338   	(-1.482900e+01 5.599343e+00 -1.471196e+03)	(-1.483845e+01 5.546409e+00 -1.472149e+03)	(9.446805e-03 5.293401e-02 9.531488e-01)
0.00058448    	(-1.437132e+01 5.413540e+00 -1.426058e+03)	(-1.438103e+01 5.359981e+00 -1.427037e+03)	(9.707910e-03 5.355934e-02 9.792781e-01)
0.000618892   	(-1.399244e+01 5.275852e+00 -1.388658e+03)	(-1.400243e+01 5.221695e+00 -1.389665e+03)	(9.980763e-03 5.415689e-02 1.006582e+00)
0.000652822   	(-1.369425e+01 5.177208e+00 -1.359187e+03)	(-1.370452e+01 5.122478e+00 -1.360221e+03)	(1.026181e-02 5.473060e-02 1.034704e+00)
0.00068651    	(-1.341793e+01 5.089093e+00 -1.331877e+03)	(-1.342848e+01 5.033808e+00 -1.332941e+03)	(1.054912e-02 5.528552e-02 1.063454e+00)
0.000720119   	(-1.316816e+01 5.026791e+00 -1.307148e+03)	(-1.317900e+01 4.970966e+00 -1.308241e+03)	(1.084082e-02 5.582504e-02 1.092644e+00)
0.000753739   	(-1.293611e+01 4.963465e+00 -1.284186e+03)	(-1.294725e+01 4.907113e+00 -1.285308e+03)	(1.113532e-02 5.635146e-02 1.122114e+00)
0.000787519   	(-1.275654e+01 4.908978e+00 -1.266414e+03)	(-1.276797e+01 4.852110e+00 -1.267566e+03)	(1.143236e-02 5.686756e-02 1.151840e+00)
0.000820969   	(-1.261045e+01 4.856918e+00 -1.251958e+03)	(-1.262217e+01 4.799549e+00 -1.253139e+03)	(1.172715e-02 5.736851e-02 1.181339e+00)
0.000853864   	(-1.248927e+01 4.807942e+00 -1.239963e+03)	(-1.250128e+01 4.750088e+00 -1.241174e+03)	(1.201735e-02 5.785367e-02 1.210380e+00)
0.000886339   	(-1.224546e+01 4.723768e+00 -1.215894e+03)	(-1.225776e+01 4.665440e+00 -1.217133e+03)	(1.230352e-02 5.832782e-02 1.239016e+00)
0.000918529   	(-1.201486e+01 4.648786e+00 -1.193119e+03)	(-1.202745e+01 4.589992e+00 -1.194386e+03)	(1.258666e-02 5.879416e-02 1.267349e+00)
0.000950491   	(-1.181250e+01 4.582156e+00 -1.173121e+03)	(-1.182536e+01 4.522903e+00 -1.174417e+03)	(1.286722e-02 5.925305e-02 1.295424e+00)
0.000982299   	(-1.150010e+01 4.487625e+00 -1.142278e+03)	(-1.151324e+01 4.427919e+00 -1.143601e+03)	(1.314801e-02 5.970616e-02 1.323517e+00)
0.00101407    	(-1.131918e+01 4.423055e+00 -1.124393e+03)	(-1.133261e+01 4.362900e+00 -1.125745e+03)	(1.343006e-02 6.015517e-02 1.351734e+00)
0.00104589    	(-1.120315e+01 4.375043e+00 -1.112900e+03)	(-1.121686e+01 4.314441e+00 -1.114280e+03)	(1.371451e-02 6.060168e-02 1.380187e+00)
0.00107788    	(-1.104153e+01 4.313291e+00 -1.096915e+03)	(-1.105554e+01 4.252240e+00 -1.098324e+03)	(1.400307e-02 6.105095e-02 1.409046e+00)
0.00111008    	(-1.088832e+01 4.247303e+00 -1.081767e+03)	(-1.090262e+01 4.185796e+00 -1.083205e+03)	(1.429789e-02 6.150708e-02 1.438527e+00)
0.00114259    	(-1.068550e+01 4.157271e+00 -1.061743e+03)	(-1.070010e+01 4.095298e+00 -1.063212e+03)	(1.460242e-02 6.197262e-02 1.468971e+00)
0.00117545    	(-1.043213e+01 4.035375e+00 -1.036762e+03)	(-1.044705e+01 3.972927e+00 -1.038263e+03)	(1.491980e-02 6.244858e-02 1.500693e+00)
0.0012087     	(-1.012552e+01 3.872753e+00 -1.006569e+03)	(-1.014077e+01 3.809816e+00 -1.008103e+03)	(1.525416e-02 6.293672e-02 1.534100e+00)
0.00124211    	(-9.735681e+00 3.656277e+00 -9.681959e+02)	(-9.751292e+00 3.592840e+00 -9.697657e+02)	(1.561105e-02 6.343675e-02 1.569742e+00)
0.0012753     	(-9.176270e+00 3.326699e+00 -9.131749e+02)	(-9.192274e+00 3.262752e+00 -9.147839e+02)	(1.600460e-02 6.394687e-02 1.609015e+00)
0.00130835    	(-8.451437e+00 2.901287e+00 -8.418220e+02)	(-8.467886e+00 2.836814e+00 -8.434753e+02)	(1.644882e-02 6.447301e-02 1.653308e+00)
0.00134133    	(-7.581128e+00 2.394681e+00 -7.560598e+02)	(-7.598043e+00 2.329669e+00 -7.577597e+02)	(1.691582e-02 6.501241e-02 1.699858e+00)
0.00137429    	(-6.608655e+00 1.803450e+00 -6.602300e+02)	(-6.626027e+00 1.737886e+00 -6.619753e+02)	(1.737154e-02 6.556452e-02 1.745295e+00)
0.00140727    	(-5.384708e+00 1.006215e+00 -5.397173e+02)	(-5.402516e+00 9.400939e-01 -5.415062e+02)	(1.780828e-02 6.612075e-02 1.788853e+00)
0.00144036    	(-3.384042e+00 -2.406844e-01 -3.426569e+02)	(-3.402253e+00 -3.073391e-01 -3.444859e+02)	(1.821055e-02 6.665467e-02 1.828994e+00)
0.00147359    	(8.312368e-01 -2.637735e+00 7.283628e+01)	(8.126922e-01 -2.704858e+00 7.097391e+01)	(1.854464e-02 6.712278e-02 1.862369e+00)
0.00150704    	(8.107726e+00 -6.538838e+00 7.904407e+02)	(8.088972e+00 -6.606317e+00 7.885574e+02)	(1.875344e-02 6.747842e-02 1.883316e+00)
0.00154078    	(1.263529e+01 -8.770310e+00 1.237609e+03)	(1.261646e+01 -8.838036e+00 1.235718e+03)	(1.883010e-02 6.772589e-02 1.891141e+00)
0.00157489    	(6.194387e+00 -4.963866e+00 6.037814e+02)	(6.175501e+00 -5.031845e+00 6.018845e+02)	(1.888630e-02 6.797889e-02 1.896920e+00)
0.00160939    	(-2.449733e+00 -2.818757e-01 -2.483419e+02)	(-2.468717e+00 -3.501752e-01 -2.502487e+02)	(1.898387e-02 6.829951e-02 1.906797e+00)
0.00164433    	(-6.661643e+00 1.882996e+00 -6.639054e+02)	(-6.680763e+00 1.814364e+00 -6.658259e+02)	(1.912050e-02 6.863149e-02 1.920542e+00)
0.00167971    	(-8.317828e+00 2.695274e+00 -8.274798e+02)	(-8.337097e+00 2.626315e+00 -8.294152e+02)	(1.926871e-02 6.895946e-02 1.935435e+00)
0.001715      	(-8.814299e+00 2.866334e+00 -8.766310e+02)	(-8.833714e+00 2.797063e+00 -8.785812e+02)	(1.941550e-02 6.927171e-02 1.950183e+00)
0.00175039    	(-9.188955e+00 2.958797e+00 -9.137427e+02)	(-9.208512e+00 2.889232e+00 -9.157071e+02)	(1.955718e-02 6.956539e-02 1.964421e+00)
0.00178578    	(-9.501170e+00 2.963433e+00 -9.447569e+02)	(-9.520863e+00 2.893593e+00 -9.467350e+02)	(1.969310e-02 6.983954e-02 1.978081e+00)
0.00182128    	(-9.941509e+00 2.980727e+00 -9.884439e+02)	(-9.961331e+00 2.910633e+00 -9.904350e+02)	(1.982211e-02 7.009476e-02 1.991052e+00)
0.00185685    	(-1.042306e+01 2.985898e+00 -1.036223e+03)	(-1.044301e+01 2.915569e+00 -1.038226e+03)	(1.994362e-02 7.032875e-02 2.003272e+00)
0.00189249    	(-1.087026e+01 3.015712e+00 -1.080558e+03)	(-1.089032e+01 2.945172e+00 -1.082573e+03)	(2.005617e-02 7.053995e-02 2.014598e+00)
0.00192824    	(-1.125070e+01 3.052152e+00 -1.118262e+03)	(-1.127086e+01 2.981415e+00 -1.120287e+03)	(2.016174e-02 7.073675e-02 2.025227e+00)
0.00196403    	(-1.172692e+01 3.065923e+00 -1.165541e+03)	(-1.174718e+01 2.995009e+00 -1.167576e+03)	(2.025903e-02 7.091400e-02 2.035029e+00)
0.00199993    	(-1.275490e+01 3.026852e+00 -1.267683e+03)	(-1.277524e+01 2.955794e+00 -1.269726e+03)	(2.033848e-02 7.105808e-02 2.043049e+00)
0.00203585    	(-1.484877e+01 2.872140e+00 -1.475881e+03)	(-1.486916e+01 2.801002e+00 -1.477928e+03)	(2.038294e-02 7.113835e-02 2.047568e+00)
0.00207176    	(-1.898657e+01 2.561066e+00 -1.887278e+03)	(-1.900693e+01 2.489958e+00 -1.889324e+03)	(2.036183e-02 7.110709e-02 2.045530e+00)
0.00210757    	(-2.186825e+01 2.439321e+00 -2.173782e+03)	(-2.188854e+01 2.368316e+00 -2.175820e+03)	(2.028983e-02 7.100476e-02 2.038403e+00)
0.00214318    	(-1.747312e+01 2.705417e+00 -1.736997e+03)	(-1.749339e+01 2.634407e+00 -1.739034e+03)	(2.026950e-02 7.101079e-02 2.036449e+00)
0.00217875    	(-1.250368e+01 3.047760e+00 -1.242979e+03)	(-1.252400e+01 2.976630e+00 -1.245020e+03)	(2.031454e-02 7.113010e-02 2.041036e+00)
0.00221426    	(-1.093335e+01 3.135504e+00 -1.086885e+03)	(-1.095373e+01 3.064235e+00 -1.088933e+03)	(2.038132e-02 7.126931e-02 2.047795e+00)
0.00224979    	(-1.083569e+01 3.132855e+00 -1.077209e+03)	(-1.085614e+01 3.061454e+00 -1.079264e+03)	(2.045078e-02 7.140178e-02 2.054821e+00)
0.00228535    	(-1.073979e+01 3.123965e+00 -1.067713e+03)	(-1.076032e+01 3.052439e+00 -1.069775e+03)	(2.052120e-02 7.152552e-02 2.061944e+00)
0.00232093    	(-1.071390e+01 3.103483e+00 -1.065179e+03)	(-1.073449e+01 3.031845e+00 -1.067248e+03)	(2.059245e-02 7.163865e-02 2.069148e+00)
0.00235659    	(-1.070761e+01 3.101233e+00 -1.064561e+03)	(-1.072827e+01 3.029489e+00 -1.066637e+03)	(2.066441e-02 7.174401e-02 2.076424e+00)
0.00239227    	(-1.070396e+01 3.091481e+00 -1.064220e+03)	(-1.072470e+01 3.019640e+00 -1.066304e+03)	(2.073830e-02 7.184026e-02 2.083892e+00)
0.00242808    	(-1.072122e+01 3.093060e+00 -1.065929e+03)	(-1.074203e+01 3.021129e+00 -1.068021e+03)	(2.081223e-02 7.193097e-02 2.091366e+00)
0.00246388    	(-1.072861e+01 3.088225e+00 -1.066671e+03)	(-1.074950e+01 3.016205e+00 -1.068770e+03)	(2.088787e-02 7.202015e-02 2.099009e+00)
0.00249982    	(-1.073204e+01 3.085833e+00 -1.067021e+03)	(-1.075301e+01 3.013738e+00 -1.069127e+03)	(2.096217e-02 7.209528e-02 2.106519e+00)
0.00253577    	(-1.073979e+01 3.086616e+00 -1.067793e+03)	(-1.076082e+01 3.014449e+00 -1.069907e+03)	(2.103602e-02 7.216679e-02 2.113984e+00)
0.00257183    	(-1.074279e+01 3.082477e+00 -1.068102e+03)	(-1.076390e+01 3.010242e+00 -1.070223e+03)	(2.111156e-02 7.223448e-02 2.121618e+00)
0.00260794    	(-1.076135e+01 3.091040e+00 -1.069943e+03)	(-1.078254e+01 3.018749e+00 -1.072072e+03)	(2.118402e-02 7.229163e-02 2.128945e+00)
0.00264412    	(-1.077198e+01 3.094264e+00 -1.071005e+03)	(-1.079323e+01 3.021921e+00 -1.073141e+03)	(2.125331e-02 7.234294e-02 2.135956e+00)
0.00268043    	(-1.076979e+01 3.094624e+00 -1.070802e+03)	(-1.079111e+01 3.022232e+00 -1.072945e+03)	(2.132290e-02 7.239149e-02 2.142998e+00)
0.00271676    	(-1.080910e+01 3.110213e+00 -1.074691e+03)	(-1.083049e+01 3.037780e+00 -1.076841e+03)	(2.138886e-02 7.243328e-02 2.149677e+00)
0.00275309    	(-1.083210e+01 3.122444e+00 -1.076971e+03)	(-1.085355e+01 3.049972e+00 -1.079127e+03)	(2.145179e-02 7.247206e-02 2.156056e+00)
0.00278943    	(-1.084174e+01 3.124774e+00 -1.077938e+03)	(-1.086326e+01 3.052263e+00 -1.080100e+03)	(2.151541e-02 7.251076e-02 2.162502e+00)
0.00282579    	(-1.087117e+01 3.138297e+00 -1.080852e+03)	(-1.089274e+01 3.065754e+00 -1.083020e+03)	(2.157366e-02 7.254239e-02 2.168413e+00)
0.00286219    	(-1.091058e+01 3.152860e+00 -1.084752e+03)	(-1.093221e+01 3.080288e+00 -1.086926e+03)	(2.162888e-02 7.257155e-02 2.174022e+00)
0.00289858    	(-1.094223e+01 3.163204e+00 -1.087888e+03)	(-1.096391e+01 3.090601e+00 -1.090068e+03)	(2.168398e-02 7.260299e-02 2.179620e+00)
0.00293495    	(-1.096642e+01 3.173987e+00 -1.090287e+03)	(-1.098815e+01 3.101354e+00 -1.092472e+03)	(2.173570e-02 7.263319e-02 2.184881e+00)
0.00297129    	(-1.099632e+01 3.189663e+00 -1.093246e+03)	(-1.101811e+01 3.117002e+00 -1.095436e+03)	(2.178485e-02 7.266139e-02 2.189885e+00)
0.00300763    	(-1.102173e+01 3.200540e+00 -1.095766e+03)	(-1.104357e+01 3.127850e+00 -1.097961e+03)	(2.183312e-02 7.269087e-02 2.194800e+00)
0.00304397    	(-1.104751e+01 3.212495e+00 -1.098319e+03)	(-1.106939e+01 3.139774e+00 -1.100518e+03)	(2.187867e-02 7.272034e-02 2.199446e+00)
0.00308033    	(-1.108011e+01 3.228517e+00 -1.101543e+03)	(-1.110203e+01 3.155768e+00 -1.103747e+03)	(2.192149e-02 7.274893e-02 2.203818e+00)
0.00311667    	(-1.109958e+01 3.235128e+00 -1.103476e+03)	(-1.112154e+01 3.162348e+00 -1.105685e+03)	(2.196392e-02 7.278040e-02 2.208152e+00)
0.00315298    	(-1.112299e+01 3.246661e+00 -1.105793e+03)	(-1.114499e+01 3.173847e+00 -1.108005e+03)	(2.200556e-02 7.281420e-02 2.212407e+00)
0.00318927    	(-1.114968e+01 3.258737e+00 -1.108436e+03)	(-1.117172e+01 3.185893e+00 -1.110652e+03)	(2.204028e-02 7.284447e-02 2.215972e+00)
0.00322554    	(-1.116684e+01 3.263357e+00 -1.110142e+03)	(-1.118892e+01 3.190479e+00 -1.112361e+03)	(2.207475e-02 7.287856e-02 2.219513e+00)
0.00326181    	(-1.118888e+01 3.272508e+00 -1.112325e+03)	(-1.121099e+01 3.199592e+00 -1.114548e+03)	(2.210957e-02 7.291623e-02 2.223088e+00)
0.00329807    	(-1.120896e+01 3.274277e+00 -1.114322e+03)	(-1.123110e+01 3.201328e+00 -1.116548e+03)	(2.213846e-02 7.294920e-02 2.226072e+00)
0.00333433    	(-1.123976e+01 3.283860e+00 -1.117369e+03)	(-1.126192e+01 3.210877e+00 -1.119597e+03)	(2.216585e-02 7.298321e-02 2.228905e+00)
0.00337055    	(-1.126129e+01 3.290284e+00 -1.119503e+03)	(-1.128349e+01 3.217262e+00 -1.121735e+03)	(2.219272e-02 7.302217e-02 2.231688e+00)
0.00340672    	(-1.128174e+01 3.296811e+00 -1.121526e+03)	(-1.130395e+01 3.223751e+00 -1.123760e+03)	(2.221702e-02 7.306044e-02 2.234214e+00)
0.00344287    	(-1.130488e+01 3.302869e+00 -1.123820e+03)	(-1.132712e+01 3.229771e+00 -1.126057e+03)	(2.224009e-02 7.309811e-02 2.236617e+00)
0.00347901    	(-1.131378e+01 3.303183e+00 -1.124707e+03)	(-1.133605e+01 3.230040e+00 -1.126946e+03)	(2.226285e-02 7.314285e-02 2.238989e+00)
0.00351516    	(-1.132959e+01 3.306026e+00 -1.126273e+03)	(-1.135187e+01 3.232838e+00 -1.128514e+03)	(2.228281e-02 7.318817e-02 2.241083e+00)
0.00355132    	(-1.133383e+01 3.301926e+00 -1.126699e+03)	(-1.135613e+01 3.228693e+00 -1.128942e+03)	(2.230314e-02 7.323279e-02 2.243213e+00)
0.00358751    	(-1.133945e+01 3.299734e+00 -1.127262e+03)	(-1.136177e+01 3.226453e+00 -1.129507e+03)	(2.232034e-02 7.328034e-02 2.245030e+00)
0.00362375    	(-1.134395e+01 3.295156e+00 -1.127715e+03)	(-1.136628e+01 3.221824e+00 -1.129962e+03)	(2.233576e-02 7.333227e-02 2.246671e+00)
0.00366002    	(-1.133257e+01 3.284687e+00 -1.126604e+03)	(-1.135492e+01 3.211302e+00 -1.128852e+03)	(2.234826e-02 7.338533e-02 2.248021e+00)
0.00369631    	(-1.134104e+01 3.283864e+00 -1.127446e+03)	(-1.136340e+01 3.210426e+00 -1.129695e+03)	(2.236030e-02 7.343840e-02 2.249324e+00)
0.0037326     	(-1.134203e+01 3.272932e+00 -1.127558e+03)	(-1.136441e+01 3.199436e+00 -1.129809e+03)	(2.237284e-02 7.349618e-02 2.250677e+00)
0.00376892    	(-1.134679e+01 3.265370e+00 -1.128042e+03)	(-1.136917e+01 3.191817e+00 -1.130293e+03)	(2.238323e-02 7.355321e-02 2.251816e+00)
0.00380525    	(-1.134039e+01 3.251156e+00 -1.127427e+03)	(-1.136278e+01 3.177547e+00 -1.129680e+03)	(2.239202e-02 7.360877e-02 2.252796e+00)
0.00384159    	(-1.134814e+01 3.249748e+00 -1.128199e+03)	(-1.137054e+01 3.176085e+00 -1.130453e+03)	(2.239980e-02 7.366344e-02 2.253674e+00)
0.00387794    	(-1.135241e+01 3.243710e+00 -1.128632e+03)	(-1.137482e+01 3.169988e+00 -1.130887e+03)	(2.240740e-02 7.372183e-02 2.254535e+00)
0.00391432    	(-1.136465e+01 3.245320e+00 -1.129845e+03)	(-1.138706e+01 3.171540e+00 -1.132100e+03)	(2.241249e-02 7.377978e-02 2.255145e+00)
0.00395072    	(-1.136628e+01 3.237378e+00 -1.130019e+03)	(-1.138869e+01 3.163541e+00 -1.132274e+03)	(2.241551e-02 7.383728e-02 2.255551e+00)
0.00398714    	(-1.138370e+01 3.243597e+00 -1.131741e+03)	(-1.140612e+01 3.169705e+00 -1.133997e+03)	(2.241607e-02 7.389262e-02 2.255710e+00)
0.0040236     	(-1.140234e+01 3.249171e+00 -1.133586e+03)	(-1.142476e+01 3.175222e+00 -1.135842e+03)	(2.241866e-02 7.394869e-02 2.256073e+00)
0.00406007    	(-1.142102e+01 3.255433e+00 -1.135435e+03)	(-1.144344e+01 3.181429e+00 -1.137692e+03)	(2.241914e-02 7.400348e-02 2.256224e+00)
0.00409658    	(-1.143116e+01 3.254706e+00 -1.136446e+03)	(-1.145358e+01 3.180656e+00 -1.138702e+03)	(2.241260e-02 7.405094e-02 2.255675e+00)
0.00413312    	(-1.145554e+01 3.265384e+00 -1.138855e+03)	(-1.147794e+01 3.191285e+00 -1.141110e+03)	(2.240540e-02 7.409884e-02 2.255060e+00)
0.00416954    	(-1.147237e+01 3.266106e+00 -1.140530e+03)	(-1.149477e+01 3.191959e+00 -1.142784e+03)	(2.239652e-02 7.414648e-02 2.254277e+00)
0.00420569    	(-1.149154e+01 3.267248e+00 -1.142433e+03)	(-1.151393e+01 3.193056e+00 -1.144687e+03)	(2.238696e-02 7.419221e-02 2.253425e+00)
0.00424161    	(-1.151172e+01 3.269442e+00 -1.144438e+03)	(-1.153409e+01 3.195207e+00 -1.146691e+03)	(2.237745e-02 7.423504e-02 2.252575e+00)
0.00427735    	(-1.152490e+01 3.273047e+00 -1.145744e+03)	(-1.154727e+01 3.198771e+00 -1.147995e+03)	(2.236603e-02 7.427595e-02 2.251536e+00)
0.00431297    	(-1.153886e+01 3.272312e+00 -1.147135e+03)	(-1.156121e+01 3.197997e+00 -1.149385e+03)	(2.235322e-02 7.431452e-02 2.250357e+00)
0.00434851    	(-1.155940e+01 3.277359e+00 -1.149171e+03)	(-1.158174e+01 3.203008e+00 -1.151420e+03)	(2.234030e-02 7.435062e-02 2.249164e+00)
0.00438395    	(-1.159135e+01 3.292019e+00 -1.152326e+03)	(-1.161368e+01 3.217635e+00 -1.154574e+03)	(2.232640e-02 7.438423e-02 2.247875e+00)
0.00441929    	(-1.160601e+01 3.294952e+00 -1.153778e+03)	(-1.162832e+01 3.220536e+00 -1.156024e+03)	(2.231189e-02 7.441599e-02 2.246523e+00)
0.00445454    	(-1.162163e+01 3.296188e+00 -1.155330e+03)	(-1.164392e+01 3.221745e+00 -1.157576e+03)	(2.229639e-02 7.444344e-02 2.245070e+00)
0.00448969    	(-1.163887e+01 3.300578e+00 -1.157038e+03)	(-1.166115e+01 3.226109e+00 -1.159282e+03)	(2.228302e-02 7.446872e-02 2.243830e+00)
0.00452477    	(-1.166922e+01 3.315324e+00 -1.160030e+03)	(-1.169148e+01 3.240832e+00 -1.162272e+03)	(2.226617e-02 7.449159e-02 2.242241e+00)
0.00455976    	(-1.168952e+01 3.319740e+00 -1.162041e+03)	(-1.171177e+01 3.245225e+00 -1.164281e+03)	(2.225044e-02 7.451471e-02 2.240763e+00)
0.00459471    	(-1.169627e+01 3.316086e+00 -1.162717e+03)	(-1.171850e+01 3.241554e+00 -1.164956e+03)	(2.223390e-02 7.453132e-02 2.239202e+00)
0.00462963    	(-1.171672e+01 3.317080e+00 -1.164747e+03)	(-1.173894e+01 3.242537e+00 -1.166985e+03)	(2.221533e-02 7.454301e-02 2.237437e+00)
0.00466455    	(-1.174612e+01 3.330510e+00 -1.167648e+03)	(-1.176832e+01 3.255956e+00 -1.169884e+03)	(2.219819e-02 7.455397e-02 2.235814e+00)
0.00469951    	(-1.176097e+01 3.330877e+00 -1.169121e+03)	(-1.178315e+01 3.256312e+00 -1.171355e+03)	(2.218228e-02 7.456441e-02 2.234312e+00)
0.00473454    	(-1.175794e+01 3.322770e+00 -1.168833e+03)	(-1.178010e+01 3.248201e+00 -1.171066e+03)	(2.216475e-02 7.456890e-02 2.232648e+00)
0.00476965    	(-1.177503e+01 3.328874e+00 -1.170520e+03)	(-1.179717e+01 3.254307e+00 -1.172751e+03)	(2.214427e-02 7.456710e-02 2.230690e+00)
0.00480488    	(-1.180113e+01 3.340202e+00 -1.173098e+03)	(-1.182326e+01 3.265638e+00 -1.175327e+03)	(2.212978e-02 7.456373e-02 2.229326e+00)
0.00484029    	(-1.180501e+01 3.334673e+00 -1.173492e+03)	(-1.182712e+01 3.260114e+00 -1.175720e+03)	(2.211091e-02 7.455887e-02 2.227525e+00)
0.00487587    	(-1.179126e+01 3.320538e+00 -1.172147e+03)	(-1.181335e+01 3.245989e+00 -1.174372e+03)	(2.208844e-02 7.454917e-02 2.225366e+00)
0.00491159    	(-1.182734e+01 3.340160e+00 -1.175704e+03)	(-1.184941e+01 3.265625e+00 -1.177927e+03)	(2.206823e-02 7.453539e-02 2.223431e+00)
0.00494713    	(-1.184285e+01 3.341130e+00 -1.177247e+03)	(-1.186489e+01 3.266610e+00 -1.179468e+03)	(2.204566e-02 7.452022e-02 2.221258e+00)
0.0049825     	(-1.185061e+01 3.339568e+00 -1.178021e+03)	(-1.187263e+01 3.265065e+00 -1.180240e+03)	(2.202219e-02 7.450289e-02 2.218995e+00)
0.00501775    	(-1.185635e+01 3.335515e+00 -1.178598e+03)	(-1.187835e+01 3.261033e+00 -1.180815e+03)	(2.199659e-02 7.448221e-02 2.216519e+00)
0.00505286    	(-1.190174e+01 3.357502e+00 -1.183076e+03)	(-1.192371e+01 3.283043e+00 -1.185290e+03)	(2.197073e-02 7.445900e-02 2.214016e+00)
0.00508787    	(-1.191726e+01 3.357496e+00 -1.184623e+03)	(-1.193921e+01 3.283057e+00 -1.186834e+03)	(2.194503e-02 7.443850e-02 2.211527e+00)
0.00512275    	(-1.192846e+01 3.355399e+00 -1.185739e+03)	(-1.195037e+01 3.280982e+00 -1.187948e+03)	(2.191702e-02 7.441690e-02 2.208808e+00)
0.00515753    	(-1.196934e+01 3.377629e+00 -1.189769e+03)	(-1.199123e+01 3.303236e+00 -1.191975e+03)	(2.188886e-02 7.439266e-02 2.206072e+00)
0.00519222    	(-1.198979e+01 3.384173e+00 -1.191795e+03)	(-1.201165e+01 3.309802e+00 -1.193999e+03)	(2.186031e-02 7.437054e-02 2.203296e+00)
0.00522683    	(-1.200426e+01 3.387174e+00 -1.193233e+03)	(-1.202609e+01 3.312826e+00 -1.195433e+03)	(2.183008e-02 7.434787e-02 2.200353e+00)
0.00526138    	(-1.202025e+01 3.388931e+00 -1.194822e+03)	(-1.204205e+01 3.314609e+00 -1.197019e+03)	(2.179785e-02 7.432224e-02 2.197210e+00)
0.00529589    	(-1.206359e+01 3.415625e+00 -1.199090e+03)	(-1.208536e+01 3.341326e+00 -1.201284e+03)	(2.176919e-02 7.429892e-02 2.194419e+00)
0.00533036    	(-1.207834e+01 3.418905e+00 -1.200555e+03)	(-1.210008e+01 3.344631e+00 -1.202747e+03)	(2.173749e-02 7.427390e-02 2.191326e+00)
0.00536481    	(-1.209470e+01 3.423224e+00 -1.202178e+03)	(-1.211641e+01 3.348978e+00 -1.204366e+03)	(2.170325e-02 7.424686e-02 2.187980e+00)
0.00539926    	(-1.212225e+01 3.433722e+00 -1.204903e+03)	(-1.214392e+01 3.359505e+00 -1.207087e+03)	(2.166774e-02 7.421636e-02 2.184505e+00)
0.00543372    	(-1.215723e+01 3.452506e+00 -1.208352e+03)	(-1.217886e+01 3.378319e+00 -1.210533e+03)	(2.163367e-02 7.418656e-02 2.181173e+00)
0.00546821    	(-1.218240e+01 3.459419e+00 -1.210846e+03)	(-1.220400e+01 3.385263e+00 -1.213023e+03)	(2.159898e-02 7.415613e-02 2.177778e+00)
0.00550274    	(-1.219796e+01 3.464104e+00 -1.212387e+03)	(-1.221953e+01 3.389980e+00 -1.214561e+03)	(2.156278e-02 7.412392e-02 2.174232e+00)
0.00553733    	(-1.224211e+01 3.489151e+00 -1.216736e+03)	(-1.226364e+01 3.415061e+00 -1.218906e+03)	(2.152681e-02 7.409001e-02 2.170708e+00)
0.00557198    	(-1.226344e+01 3.496706e+00 -1.218847e+03)	(-1.228493e+01 3.422650e+00 -1.221014e+03)	(2.149021e-02 7.405601e-02 2.167120e+00)
0.00560671    	(-1.228700e+01 3.504566e+00 -1.221178e+03)	(-1.230845e+01 3.430547e+00 -1.223341e+03)	(2.145166e-02 7.401944e-02 2.163338e+00)
0.00564153    	(-1.231217e+01 3.517388e+00 -1.223661e+03)	(-1.233358e+01 3.443407e+00 -1.225821e+03)	(2.141316e-02 7.398117e-02 2.159559e+00)
0.00567645    	(-1.234574e+01 3.535282e+00 -1.226971e+03)	(-1.236711e+01 3.461334e+00 -1.229127e+03)	(2.137865e-02 7.394846e-02 2.156177e+00)
0.00571149    	(-1.236460e+01 3.542917e+00 -1.228837e+03)	(-1.238594e+01 3.469010e+00 -1.230989e+03)	(2.133877e-02 7.390714e-02 2.152258e+00)
0.00574664    	(-1.238896e+01 3.553725e+00 -1.231242e+03)	(-1.241025e+01 3.479862e+00 -1.233390e+03)	(2.129750e-02 7.386349e-02 2.148201e+00)
0.00578192    	(-1.241144e+01 3.567790e+00 -1.233456e+03)	(-1.243270e+01 3.493969e+00 -1.235600e+03)	(2.125749e-02 7.382086e-02 2.144267e+00)
0.00581733    	(-1.244182e+01 3.580690e+00 -1.236457e+03)	(-1.246303e+01 3.506914e+00 -1.238598e+03)	(2.121569e-02 7.377610e-02 2.140155e+00)
0.00585268    	(-1.245473e+01 3.583288e+00 -1.237740e+03)	(-1.247590e+01 3.509558e+00 -1.239876e+03)	(2.117293e-02 7.372989e-02 2.135947e+00)
0.00588798    	(-1.248125e+01 3.594598e+00 -1.240359e+03)	(-1.250238e+01 3.520913e+00 -1.242491e+03)	(2.113136e-02 7.368482e-02 2.131856e+00)
0.00592323    	(-1.251516e+01 3.612059e+00 -1.243704e+03)	(-1.253625e+01 3.538421e+00 -1.245832e+03)	(2.108998e-02 7.363819e-02 2.127781e+00)
0.00595838    	(-1.253642e+01 3.618567e+00 -1.245810e+03)	(-1.255747e+01 3.544978e+00 -1.247933e+03)	(2.104745e-02 7.358908e-02 2.123593e+00)
0.00599347    	(-1.255388e+01 3.625281e+00 -1.247536e+03)	(-1.257489e+01 3.551740e+00 -1.249656e+03)	(2.100406e-02 7.354076e-02 2.119318e+00)
0.0060285     	(-1.259729e+01 3.647212e+00 -1.251818e+03)	(-1.261825e+01 3.573721e+00 -1.253934e+03)	(2.096194e-02 7.349136e-02 2.115166e+00)
0.00606346    	(-1.261937e+01 3.656231e+00 -1.254001e+03)	(-1.264029e+01 3.582793e+00 -1.256112e+03)	(2.091846e-02 7.343806e-02 2.110880e+00)
0.00609838    	(-1.263558e+01 3.660458e+00 -1.255609e+03)	(-1.265646e+01 3.587070e+00 -1.257716e+03)	(2.087757e-02 7.338821e-02 2.106851e+00)
0.00613326    	(-1.266804e+01 3.677544e+00 -1.258811e+03)	(-1.268887e+01 3.604210e+00 -1.260913e+03)	(2.083379e-02 7.333413e-02 2.102532e+00)
0.00616808    	(-1.269567e+01 3.690805e+00 -1.261539e+03)	(-1.271646e+01 3.617530e+00 -1.263637e+03)	(2.079009e-02 7.327580e-02 2.098220e+00)
0.00620284    	(-1.271052e+01 3.695028e+00 -1.263013e+03)	(-1.273126e+01 3.621813e+00 -1.265107e+03)	(2.074575e-02 7.321446e-02 2.093843e+00)
0.00623756    	(-1.272875e+01 3.701744e+00 -1.264819e+03)	(-1.274945e+01 3.628590e+00 -1.266908e+03)	(2.070215e-02 7.315450e-02 2.089540e+00)
0.00627223    	(-1.276619e+01 3.721455e+00 -1.268510e+03)	(-1.278685e+01 3.648363e+00 -1.270596e+03)	(2.065991e-02 7.309182e-02 2.085371e+00)
0.00630688    	(-1.279043e+01 3.730349e+00 -1.270909e+03)	(-1.281105e+01 3.657324e+00 -1.272990e+03)	(2.061658e-02 7.302504e-02 2.081092e+00)
0.00634151    	(-1.280597e+01 3.734706e+00 -1.272450e+03)	(-1.282655e+01 3.661747e+00 -1.274527e+03)	(2.057283e-02 7.295867e-02 2.076772e+00)
0.00637608    	(-1.284801e+01 3.757221e+00 -1.276592e+03)	(-1.286854e+01 3.684327e+00 -1.278665e+03)	(2.053003e-02 7.289405e-02 2.072545e+00)
0.0064106     	(-1.287593e+01 3.772396e+00 -1.279345e+03)	(-1.289641e+01 3.699570e+00 -1.281413e+03)	(2.048698e-02 7.282597e-02 2.068291e+00)
0.00644507    	(-1.289990e+01 3.777891e+00 -1.281723e+03)	(-1.292034e+01 3.705136e+00 -1.283787e+03)	(2.044243e-02 7.275557e-02 2.063889e+00)
0.00647951    	(-1.293236e+01 3.796298e+00 -1.284922e+03)	(-1.295276e+01 3.723611e+00 -1.286982e+03)	(2.039892e-02 7.268729e-02 2.059588e+00)
0.00651391    	(-1.296465e+01 3.813970e+00 -1.288105e+03)	(-1.298501e+01 3.741352e+00 -1.290160e+03)	(2.035502e-02 7.261787e-02 2.055250e+00)
0.0065483     	(-1.298349e+01 3.822247e+00 -1.289968e+03)	(-1.300380e+01 3.749702e+00 -1.292019e+03)	(2.031079e-02 7.254483e-02 2.050875e+00)
0.00658265    	(-1.301763e+01 3.839457e+00 -1.293337e+03)	(-1.303790e+01 3.766986e+00 -1.295384e+03)	(2.026668e-02 7.247146e-02 2.046513e+00)
0.006617      	(-1.304858e+01 3.856989e+00 -1.296389e+03)	(-1.306880e+01 3.784588e+00 -1.298431e+03)	(2.022343e-02 7.240093e-02 2.042235e+00)
0.00665133    	(-1.307658e+01 3.872095e+00 -1.299150e+03)	(-1.309676e+01 3.799767e+00 -1.301187e+03)	(2.017871e-02 7.232777e-02 2.037811e+00)
0.00668566    	(-1.310109e+01 3.883355e+00 -1.301572e+03)	(-1.312123e+01 3.811110e+00 -1.303606e+03)	(2.013754e-02 7.224507e-02 2.033740e+00)
0.00671999    	(-1.312341e+01 3.890027e+00 -1.303785e+03)	(-1.314350e+01 3.817857e+00 -1.305814e+03)	(2.009309e-02 7.217036e-02 2.029340e+00)
0.00675433    	(-1.315259e+01 3.908301e+00 -1.306658e+03)	(-1.317264e+01 3.836203e+00 -1.308683e+03)	(2.004802e-02 7.209832e-02 2.024878e+00)
0.00678867    	(-1.318344e+01 3.920787e+00 -1.309706e+03)	(-1.320344e+01 3.848763e+00 -1.311726e+03)	(2.000076e-02 7.202448e-02 2.020198e+00)
0.00682303    	(-1.321868e+01 3.940722e+00 -1.313177e+03)	(-1.323863e+01 3.868775e+00 -1.315193e+03)	(1.995358e-02 7.194749e-02 2.015524e+00)
0.00685741    	(-1.324579e+01 3.950652e+00 -1.315858e+03)	(-1.326570e+01 3.878780e+00 -1.317869e+03)	(1.990753e-02 7.187277e-02 2.010960e+00)
0.00689182    	(-1.326486e+01 3.961271e+00 -1.317737e+03)	(-1.328472e+01 3.889472e+00 -1.319743e+03)	(1.985985e-02 7.179878e-02 2.006235e+00)
0.00692625    	(-1.330868e+01 3.983004e+00 -1.322058e+03)	(-1.332849e+01 3.911281e+00 -1.324060e+03)	(1.981004e-02 7.172214e-02 2.001297e+00)
0.00696071    	(-1.333606e+01 3.995489e+00 -1.324763e+03)	(-1.335582e+01 3.923845e+00 -1.326759e+03)	(1.976102e-02 7.164430e-02 1.996435e+00)
0.00699521    	(-1.336504e+01 4.007068e+00 -1.327628e+03)	(-1.338475e+01 3.935502e+00 -1.329620e+03)	(1.971566e-02 7.156655e-02 1.991939e+00)
0.00702974    	(-1.340240e+01 4.029963e+00 -1.331304e+03)	(-1.342207e+01 3.958473e+00 -1.333291e+03)	(1.966614e-02 7.148939e-02 1.987026e+00)
0.00706432    	(-1.343611e+01 4.044181e+00 -1.334632e+03)	(-1.345572e+01 3.972772e+00 -1.336614e+03)	(1.961508e-02 7.140918e-02 1.981960e+00)
0.00709894    	(-1.344910e+01 4.046321e+00 -1.335926e+03)	(-1.346867e+01 3.974992e+00 -1.337903e+03)	(1.956577e-02 7.132913e-02 1.977067e+00)
0.00713362    	(-1.348573e+01 4.060199e+00 -1.339545e+03)	(-1.350525e+01 3.988950e+00 -1.341517e+03)	(1.951724e-02 7.124952e-02 1.972251e+00)
0.00716835    	(-1.352589e+01 4.086646e+00 -1.343490e+03)	(-1.354536e+01 4.015480e+00 -1.345457e+03)	(1.946828e-02 7.116624e-02 1.967391e+00)
0.00720313    	(-1.354808e+01 4.093065e+00 -1.345687e+03)	(-1.356750e+01 4.021983e+00 -1.347650e+03)	(1.941947e-02 7.108188e-02 1.962545e+00)
0.00723798    	(-1.355830e+01 4.090259e+00 -1.346713e+03)	(-1.357767e+01 4.019260e+00 -1.348671e+03)	(1.937187e-02 7.099930e-02 1.957819e+00)
0.00727289    	(-1.359725e+01 4.111886e+00 -1.350548e+03)	(-1.361657e+01 4.040970e+00 -1.352501e+03)	(1.932409e-02 7.091591e-02 1.953075e+00)
0.00730782    	(-1.362700e+01 4.125363e+00 -1.353482e+03)	(-1.364628e+01 4.054533e+00 -1.355431e+03)	(1.927430e-02 7.082973e-02 1.948131e+00)