# Force       
# CofR        : (5.000000e+00 5.000000e-03 0.000000e+00)
#
# Time        	(total_x total_y total_z)	(pressure_x pressure_y pressure_z)	(viscous_x viscous_y viscous_z)
1.20005e-05   	(4.116444e+04 7.750370e+04 4.632559e-14)	(4.116351e+04 7.750376e+04 4.632556e-14)	(9.236906e-01 -5.975937e-02 2.716139e-20)
2.64017e-05   	(1.787827e+03 1.977956e+03 2.302877e-15)	(1.786907e+03 1.978027e+03 2.302859e-15)	(9.197523e-01 -7.105401e-02 1.850056e-20)
4.36833e-05   	(3.575679e+02 2.493562e+02 5.159897e-16)	(3.566416e+02 2.494321e+02 5.159734e-16)	(9.262282e-01 -7.582481e-02 1.623016e-20)
6.44211e-05   	(1.098467e+02 1.710925e+02 2.043330e-16)	(1.089124e+02 1.711707e+02 2.043185e-16)	(9.342950e-01 -7.820301e-02 1.459025e-20)
8.93055e-05   	(3.994581e+01 1.127413e+02 6.205972e-17)	(3.900185e+01 1.128210e+02 6.204660e-17)	(9.439540e-01 -7.974612e-02 1.312079e-20)
0.000119165   	(2.507603e+01 1.060434e+02 3.491827e-17)	(2.412023e+01 1.061243e+02 3.490641e-17)	(9.558057e-01 -8.092847e-02 1.186411e-20)
0.000154052   	(2.831593e+01 1.187793e+02 5.558080e-17)	(2.734601e+01 1.188612e+02 5.557001e-17)	(9.699233e-01 -8.194305e-02 1.078955e-20)
0.000193974   	(3.323324e+01 1.268489e+02 7.980802e-17)	(3.224639e+01 1.269318e+02 7.979800e-17)	(9.868486e-01 -8.286803e-02 1.001347e-20)
0.000238932   	(3.583469e+01 1.377883e+02 1.039310e-16)	(3.482851e+01 1.378720e+02 1.039216e-16)	(1.006186e+00 -8.363548e-02 9.444786e-21)
0.000288938   	(3.696931e+01 1.458357e+02 1.231141e-16)	(3.594116e+01 1.459201e+02 1.231048e-16)	(1.028147e+00 -8.432070e-02 9.245522e-21)
0.000339271   	(3.699313e+01 1.454909e+02 1.301868e-16)	(3.594261e+01 1.455758e+02 1.301774e-16)	(1.050522e+00 -8.493886e-02 9.351537e-21)
0.000389554   	(3.645931e+01 1.426577e+02 1.340372e-16)	(3.538639e+01 1.427433e+02 1.340277e-16)	(1.072923e+00 -8.555500e-02 9.526577e-21)
0.000439786   	(3.577823e+01 1.409255e+02 1.431287e-16)	(3.468311e+01 1.410117e+02 1.431188e-16)	(1.095118e+00 -8.622003e-02 9.909829e-21)
0.000489993   	(3.498976e+01 1.401872e+02 1.541046e-16)	(3.387283e+01 1.402742e+02 1.540941e-16)	(1.116929e+00 -8.697923e-02 1.046783e-20)
0.000540124   	(3.425489e+01 1.386111e+02 1.624470e-16)	(3.311668e+01 1.386991e+02 1.624357e-16)	(1.138204e+00 -8.790691e-02 1.126833e-20)
0.000590205   	(3.362677e+01 1.369832e+02 1.662706e-16)	(3.246793e+01 1.370722e+02 1.662584e-16)	(1.158839e+00 -8.907313e-02 1.219462e-20)
0.000640185   	(3.309774e+01 1.355032e+02 1.644463e-16)	(3.191898e+01 1.355937e+02 1.644333e-16)	(1.178759e+00 -9.053427e-02 1.298866e-20)
0.000689082   	(3.257295e+01 1.344993e+02 1.596536e-16)	(3.137530e+01 1.345916e+02 1.596401e-16)	(1.197641e+00 -9.230374e-02 1.347809e-20)
0.000736645   	(3.218974e+01 1.350077e+02 1.561288e-16)	(3.097429e+01 1.351020e+02 1.561151e-16)	(1.215449e+00 -9.435080e-02 1.365598e-20)
0.000783095   	(3.175963e+01 1.352256e+02 1.526623e-16)	(3.052731e+01 1.353222e+02 1.526487e-16)	(1.232320e+00 -9.663838e-02 1.358869e-20)
0.000828524   	(3.117071e+01 1.345923e+02 1.494577e-16)	(2.992236e+01 1.346915e+02 1.494443e-16)	(1.248343e+00 -9.912979e-02 1.339423e-20)
0.000873115   	(3.059022e+01 1.340920e+02 1.479601e-16)	(2.932660e+01 1.341938e+02 1.479469e-16)	(1.263618e+00 -1.017868e-01 1.324212e-20)
0.000916977   	(3.002358e+01 1.336405e+02 1.479416e-16)	(2.874536e+01 1.337451e+02 1.479284e-16)	(1.278222e+00 -1.045779e-01 1.320985e-20)
0.000960207   	(2.953562e+01 1.333005e+02 1.486482e-16)	(2.824339e+01 1.334080e+02 1.486349e-16)	(1.292229e+00 -1.074802e-01 1.328581e-20)
0.00100291    	(2.904409e+01 1.328857e+02 1.496729e-16)	(2.773839e+01 1.329962e+02 1.496595e-16)	(1.305708e+00 -1.104972e-01 1.340838e-20)
0.00104517    	(2.855749e+01 1.324716e+02 1.507876e-16)	(2.723877e+01 1.325853e+02 1.507740e-16)	(1.318727e+00 -1.136144e-01 1.358633e-20)
0.00108713    	(2.803510e+01 1.320610e+02 1.522286e-16)	(2.670373e+01 1.321779e+02 1.522147e-16)	(1.331370e+00 -1.168278e-01 1.389286e-20)
0.00112881    	(2.745386e+01 1.317289e+02 1.536118e-16)	(2.611019e+01 1.318490e+02 1.535973e-16)	(1.343676e+00 -1.201284e-01 1.449078e-20)
0.00117031    	(2.679272e+01 1.314892e+02 1.552600e-16)	(2.543701e+01 1.316127e+02 1.552445e-16)	(1.355706e+00 -1.235210e-01 1.544667e-20)
0.00121164    	(2.577284e+01 1.298079e+02 1.558529e-16)	(2.440532e+01 1.299349e+02 1.558362e-16)	(1.367524e+00 -1.269932e-01 1.667402e-20)
0.00125294    	(2.467534e+01 1.287025e+02 1.576192e-16)	(2.329615e+01 1.288330e+02 1.576014e-16)	(1.379199e+00 -1.305573e-01 1.778935e-20)
0.0012942     	(2.336130e+01 1.269959e+02 1.585776e-16)	(2.197051e+01 1.271301e+02 1.585593e-16)	(1.390786e+00 -1.342205e-01 1.830126e-20)
0.0013355     	(2.200168e+01 1.256782e+02 1.603100e-16)	(2.059931e+01 1.258162e+02 1.602921e-16)	(1.402362e+00 -1.380126e-01 1.793832e-20)
0.00137689    	(2.055008e+01 1.241817e+02 1.621243e-16)	(1.913630e+01 1.243237e+02 1.621076e-16)	(1.413784e+00 -1.419629e-01 1.670182e-20)
0.00141841    	(1.899354e+01 1.230877e+02 1.655894e-16)	(1.756780e+01 1.232340e+02 1.655749e-16)	(1.425739e+00 -1.462509e-01 1.456007e-20)
0.00146012    	(1.722459e+01 1.216086e+02 1.697796e-16)	(1.578651e+01 1.217596e+02 1.697687e-16)	(1.438078e+00 -1.509938e-01 1.094885e-20)
0.00150201    	(1.524729e+01 1.193969e+02 1.800835e-16)	(1.379623e+01 1.195533e+02 1.800770e-16)	(1.451058e+00 -1.563631e-01 6.486990e-21)
0.00154414    	(1.302275e+01 1.161691e+02 2.048707e-16)	(1.155770e+01 1.163317e+02 2.048686e-16)	(1.465052e+00 -1.626150e-01 2.095399e-21)
0.00158656    	(1.080231e+01 1.111913e+02 2.457614e-16)	(9.321946e+00 1.113611e+02 2.457629e-16)	(1.480368e+00 -1.697874e-01 -1.461473e-21)
0.00162887    	(8.358102e+00 1.049206e+02 2.956855e-16)	(6.861188e+00 1.050981e+02 2.956872e-16)	(1.496913e+00 -1.774671e-01 -1.788757e-21)
0.00167089    	(5.283753e+00 9.850159e+01 3.504499e-16)	(3.769373e+00 9.868668e+01 3.504489e-16)	(1.514379e+00 -1.850930e-01 1.002772e-21)
0.0017127     	(1.112978e+00 9.111332e+01 4.034312e-16)	(-4.195766e-01 9.130600e+01 4.034248e-16)	(1.532554e+00 -1.926744e-01 6.420533e-21)
0.00175431    	(-4.782352e+00 8.073584e+01 4.341936e-16)	(-6.333621e+00 8.093596e+01 4.341809e-16)	(1.551269e+00 -2.001247e-01 1.270697e-20)
0.00179575    	(-1.290950e+01 6.591364e+01 4.179862e-16)	(-1.447945e+01 6.612069e+01 4.179684e-16)	(1.569950e+00 -2.070422e-01 1.775052e-20)
0.00183706    	(-2.482784e+01 4.493588e+01 3.486445e-16)	(-2.641610e+01 4.514895e+01 3.486254e-16)	(1.588258e+00 -2.130723e-01 1.908301e-20)
0.00187825    	(-4.093516e+01 1.473386e+01 2.479634e-16)	(-4.254089e+01 1.495189e+01 2.479476e-16)	(1.605726e+00 -2.180335e-01 1.576136e-20)
0.00191938    	(-5.435291e+01 -1.484392e+01 1.952920e-16)	(-5.597491e+01 -1.462209e+01 1.952814e-16)	(1.622001e+00 -2.218298e-01 1.061377e-20)
0.00196045    	(-4.796335e+01 -1.406554e+01 2.088042e-16)	(-4.960059e+01 -1.384063e+01 2.087957e-16)	(1.637241e+00 -2.249111e-01 8.447187e-21)
0.00200156    	(-2.701390e+01 1.839308e+01 2.376571e-16)	(-2.866566e+01 1.862082e+01 2.376468e-16)	(1.651763e+00 -2.277358e-01 1.026151e-20)
0.00204266    	(-1.403188e+01 4.503452e+01 2.471297e-16)	(-1.569754e+01 4.526507e+01 2.471163e-16)	(1.665657e+00 -2.305518e-01 1.331375e-20)
0.00208375    	(-9.974207e+00 5.394568e+01 2.358943e-16)	(-1.165321e+01 5.417874e+01 2.358785e-16)	(1.679001e+00 -2.330522e-01 1.580706e-20)
0.00212486    	(-7.362968e+00 5.860669e+01 2.261652e-16)	(-9.054759e+00 5.884191e+01 2.261475e-16)	(1.691791e+00 -2.352204e-01 1.772683e-20)
0.00216586    	(-4.495880e+00 6.414664e+01 2.195392e-16)	(-6.199944e+00 6.438380e+01 2.195202e-16)	(1.704064e+00 -2.371541e-01 1.902542e-20)
0.00220673    	(-1.589989e+00 7.024769e+01 2.167700e-16)	(-3.305941e+00 7.048664e+01 2.167502e-16)	(1.715952e+00 -2.389493e-01 1.978303e-20)
0.00224741    	(1.330327e+00 7.674439e+01 2.147870e-16)	(-3.972123e-01 7.698506e+01 2.147667e-16)	(1.727539e+00 -2.406632e-01 2.029825e-20)
0.00228797    	(3.958308e+00 8.292371e+01 2.142916e-16)	(2.219482e+00 8.316602e+01 2.142709e-16)	(1.738826e+00 -2.423141e-01 2.074627e-20)
0.00232841    	(5.620480e+00 8.656218e+01 2.126473e-16)	(3.870609e+00 8.680608e+01 2.126260e-16)	(1.749871e+00 -2.438938e-01 2.120876e-20)
0.00236877    	(6.925445e+00 8.961556e+01 2.121381e-16)	(5.164945e+00 8.986094e+01 2.121164e-16)	(1.760501e+00 -2.453789e-01 2.173145e-20)
0.00240907    	(8.019856e+00 9.232682e+01 2.110873e-16)	(6.248937e+00 9.257363e+01 2.110648e-16)	(1.770919e+00 -2.468056e-01 2.245172e-20)
0.00244931    	(9.000133e+00 9.464613e+01 2.105494e-16)	(7.219164e+00 9.489433e+01 2.105260e-16)	(1.780969e+00 -2.481958e-01 2.333904e-20)
0.00248954    	(9.790963e+00 9.664318e+01 2.096162e-16)	(8.000355e+00 9.689273e+01 2.095918e-16)	(1.790609e+00 -2.495460e-01 2.440137e-20)
0.00252973    	(1.047615e+01 9.842156e+01 2.095596e-16)	(8.676330e+00 9.867243e+01 2.095339e-16)	(1.799821e+00 -2.508694e-01 2.562413e-20)
0.00256994    	(1.102318e+01 9.992827e+01 2.089289e-16)	(9.214472e+00 1.001805e+02 2.089019e-16)	(1.808712e+00 -2.521912e-01 2.694011e-20)
0.00261012    	(1.156525e+01 1.012843e+02 2.087748e-16)	(9.747977e+00 1.015378e+02 2.087464e-16)	(1.817272e+00 -2.535114e-01 2.830312e-20)
0.0026503     	(1.193146e+01 1.023388e+02 2.080519e-16)	(1.010595e+01 1.025936e+02 2.080222e-16)	(1.825516e+00 -2.548387e-01 2.970094e-20)
0.00269049    	(1.215419e+01 1.030474e+02 2.080887e-16)	(1.032066e+01 1.033036e+02 2.080576e-16)	(1.833529e+00 -2.561855e-01 3.109544e-20)
0.00273067    	(1.245075e+01 1.039033e+02 2.073587e-16)	(1.060946e+01 1.041609e+02 2.073263e-16)	(1.841287e+00 -2.575388e-01 3.245140e-20)
0.00277088    	(1.262111e+01 1.044294e+02 2.072413e-16)	(1.077232e+01 1.046883e+02 2.072076e-16)	(1.848792e+00 -2.589075e-01 3.375056e-20)
0.00281109    	(1.276749e+01 1.049303e+02 2.064870e-16)	(1.091143e+01 1.051905e+02 2.064521e-16)	(1.856061e+00 -2.602847e-01 3.490918e-20)
0.0028513     	(1.285885e+01 1.053537e+02 2.062246e-16)	(1.099577e+01 1.056154e+02 2.061886e-16)	(1.863081e+00 -2.616533e-01 3.596582e-20)
0.00289154    	(1.294600e+01 1.057438e+02 2.054615e-16)	(1.107615e+01 1.060068e+02 2.054246e-16)	(1.869851e+00 -2.630068e-01 3.690451e-20)
0.00293179    	(1.291004e+01 1.058958e+02 2.050361e-16)	(1.103359e+01 1.061602e+02 2.049984e-16)	(1.876451e+00 -2.643420e-01 3.775474e-20)
0.00297203    	(1.295645e+01 1.062351e+02 2.041621e-16)	(1.107357e+01 1.065008e+02 2.041236e-16)	(1.882885e+00 -2.656857e-01 3.847942e-20)
0.00301229    	(1.285830e+01 1.062738e+02 2.035827e-16)	(1.096916e+01 1.065408e+02 2.035436e-16)	(1.889143e+00 -2.670256e-01 3.907166e-20)
0.00305257    	(1.288560e+01 1.064733e+02 2.026797e-16)	(1.099037e+01 1.067417e+02 2.026402e-16)	(1.895233e+00 -2.683597e-01 3.950033e-20)
0.00309285    	(1.284077e+01 1.065881e+02 2.017947e-16)	(1.093962e+01 1.068578e+02 2.017549e-16)	(1.901153e+00 -2.696892e-01 3.982032e-20)
0.00313314    	(1.278578e+01 1.066831e+02 2.009603e-16)	(1.087882e+01 1.069541e+02 2.009202e-16)	(1.906964e+00 -2.710060e-01 4.008676e-20)
0.00317345    	(1.264060e+01 1.064865e+02 1.998197e-16)	(1.072796e+01 1.067588e+02 1.997796e-16)	(1.912636e+00 -2.723244e-01 4.013661e-20)
0.00321375    	(1.267958e+01 1.067381e+02 1.989047e-16)	(1.076143e+01 1.070118e+02 1.988647e-16)	(1.918151e+00 -2.736302e-01 4.000451e-20)
0.00325406    	(1.264048e+01 1.068763e+02 1.982560e-16)	(1.071696e+01 1.071512e+02 1.982163e-16)	(1.923520e+00 -2.749257e-01 3.967905e-20)
0.00329437    	(1.260182e+01 1.069927e+02 1.977599e-16)	(1.067270e+01 1.072690e+02 1.977208e-16)	(1.929126e+00 -2.762988e-01 3.910260e-20)
0.00333466    	(1.238398e+01 1.068158e+02 1.974897e-16)	(1.044971e+01 1.070934e+02 1.974515e-16)	(1.934272e+00 -2.775593e-01 3.826624e-20)
0.00337499    	(1.250188e+01 1.071678e+02 1.972472e-16)	(1.056259e+01 1.074466e+02 1.972100e-16)	(1.939293e+00 -2.788165e-01 3.711957e-20)
0.00341535    	(1.241203e+01 1.072900e+02 1.974119e-16)	(1.046783e+01 1.075700e+02 1.973762e-16)	(1.944195e+00 -2.800560e-01 3.565248e-20)
0.00345576    	(1.238283e+01 1.073749e+02 1.980272e-16)	(1.043341e+01 1.076563e+02 1.979927e-16)	(1.949420e+00 -2.813636e-01 3.449595e-20)
0.00349626    	(1.220654e+01 1.073405e+02 1.991805e-16)	(1.025189e+01 1.076232e+02 1.991482e-16)	(1.954645e+00 -2.827255e-01 3.232004e-20)
0.00353684    	(1.236724e+01 1.076969e+02 2.001670e-16)	(1.040797e+01 1.079808e+02 2.001372e-16)	(1.959265e+00 -2.839067e-01 2.979060e-20)
0.00357753    	(1.228455e+01 1.079087e+02 2.021157e-16)	(1.032073e+01 1.081938e+02 2.020888e-16)	(1.963826e+00 -2.850752e-01 2.692281e-20)
0.00361833    	(1.218986e+01 1.079101e+02 2.046568e-16)	(1.022151e+01 1.081964e+02 2.046332e-16)	(1.968357e+00 -2.862354e-01 2.365904e-20)
0.00365928    	(1.222408e+01 1.081610e+02 2.067205e-16)	(1.025124e+01 1.084484e+02 2.067004e-16)	(1.972839e+00 -2.873822e-01 2.005211e-20)
0.00370036    	(1.227409e+01 1.084665e+02 2.098350e-16)	(1.029685e+01 1.087550e+02 2.098190e-16)	(1.977238e+00 -2.885112e-01 1.607371e-20)
0.00374162    	(1.219125e+01 1.085723e+02 2.128083e-16)	(1.020960e+01 1.088619e+02 2.127965e-16)	(1.981649e+00 -2.896190e-01 1.181815e-20)
0.00378307    	(1.218470e+01 1.087605e+02 2.160004e-16)	(1.019832e+01 1.090514e+02 2.159932e-16)	(1.986376e+00 -2.908510e-01 7.211169e-21)
0.00382473    	(1.228880e+01 1.092227e+02 2.192701e-16)	(1.029813e+01 1.095146e+02 2.192678e-16)	(1.990665e+00 -2.919312e-01 2.347946e-21)
0.00386661    	(1.226993e+01 1.093882e+02 2.226867e-16)	(1.027495e+01 1.096812e+02 2.226894e-16)	(1.994989e+00 -2.930146e-01 -2.656842e-21)
0.00390876    	(1.228329e+01 1.096725e+02 2.258308e-16)	(1.028369e+01 1.099667e+02 2.258384e-16)	(1.999598e+00 -2.942007e-01 -7.586726e-21)
0.00395107    	(1.224984e+01 1.098843e+02 2.295491e-16)	(1.024578e+01 1.101796e+02 2.295605e-16)	(2.004060e+00 -2.953565e-01 -1.135197e-20)
0.00399336    	(1.239142e+01 1.103563e+02 2.329068e-16)	(1.038324e+01 1.106527e+02 2.329225e-16)	(2.008175e+00 -2.963775e-01 -1.566244e-20)
0.00403566    	(1.235726e+01 1.105934e+02 2.365846e-16)	(1.034495e+01 1.108908e+02 2.366044e-16)	(2.012316e+00 -2.974154e-01 -1.980801e-20)
0.00407792    	(1.243059e+01 1.109720e+02 2.402093e-16)	(1.041304e+01 1.112704e+02 2.402309e-16)	(2.017548e+00 -2.984043e-01 -2.167810e-20)
0.00412019    	(1.241010e+01 1.112084e+02 2.442595e-16)	(1.038745e+01 1.115078e+02 2.442838e-16)	(2.022656e+00 -2.993690e-01 -2.430436e-20)
0.00416237    	(1.255393e+01 1.116222e+02 2.476612e-16)	(1.052613e+01 1.119227e+02 2.476884e-16)	(2.027795e+00 -3.004467e-01 -2.718131e-20)
0.00420454    	(1.257879e+01 1.120718e+02 2.520979e-16)	(1.054638e+01 1.123733e+02 2.521273e-16)	(2.032416e+00 -3.015030e-01 -2.943956e-20)
0.0042467     	(1.260449e+01 1.123316e+02 2.559323e-16)	(1.056822e+01 1.126341e+02 2.559631e-16)	(2.036275e+00 -3.024438e-01 -3.073224e-20)
0.00428879    	(1.267805e+01 1.128149e+02 2.600876e-16)	(1.063802e+01 1.131183e+02 2.601185e-16)	(2.040030e+00 -3.033726e-01 -3.096926e-20)
0.00433086    	(1.275363e+01 1.131384e+02 2.639705e-16)	(1.070983e+01 1.134427e+02 2.640010e-16)	(2.043799e+00 -3.043007e-01 -3.050523e-20)
0.00437286    	(1.280938e+01 1.135871e+02 2.678948e-16)	(1.076049e+01 1.138924e+02 2.679270e-16)	(2.048890e+00 -3.053445e-01 -3.223686e-20)
0.00441471    	(1.282498e+01 1.138731e+02 2.709260e-16)	(1.077261e+01 1.141794e+02 2.709564e-16)	(2.052377e+00 -3.062284e-01 -3.043702e-20)
0.00445643    	(1.298879e+01 1.143967e+02 2.737466e-16)	(1.093224e+01 1.147037e+02 2.737745e-16)	(2.056551e+00 -3.069724e-01 -2.793756e-20)
0.00449804    	(1.302442e+01 1.148114e+02 2.760512e-16)	(1.096380e+01 1.151191e+02 2.760776e-16)	(2.060615e+00 -3.077441e-01 -2.646653e-20)
0.00453953    	(1.315495e+01 1.152265e+02 2.772380e-16)	(1.109014e+01 1.155351e+02 2.772645e-16)	(2.064803e+00 -3.085904e-01 -2.654106e-20)
0.00458087    	(1.312796e+01 1.155294e+02 2.781558e-16)	(1.106009e+01 1.158388e+02 2.781792e-16)	(2.067874e+00 -3.093749e-01 -2.339955e-20)
0.00462207    	(1.333552e+01 1.160701e+02 2.769088e-16)	(1.126457e+01 1.163802e+02 2.769290e-16)	(2.070951e+00 -3.101199e-01 -2.017875e-20)
0.00466313    	(1.338971e+01 1.166277e+02 2.755443e-16)	(1.131579e+01 1.169386e+02 2.755619e-16)	(2.073924e+00 -3.109084e-01 -1.759940e-20)
0.00470403    	(1.351833e+01 1.169972e+02 2.733548e-16)	(1.144110e+01 1.173088e+02 2.733732e-16)	(2.077226e+00 -3.115564e-01 -1.836493e-20)
0.00474479    	(1.352274e+01 1.174361e+02 2.702054e-16)	(1.144276e+01 1.177484e+02 2.702226e-16)	(2.079986e+00 -3.122736e-01 -1.717579e-20)
0.00478543    	(1.373028e+01 1.179526e+02 2.656220e-16)	(1.164764e+01 1.182656e+02 2.656383e-16)	(2.082645e+00 -3.130127e-01 -1.623341e-20)
0.00482594    	(1.374282e+01 1.183558e+02 2.613597e-16)	(1.165569e+01 1.186692e+02 2.613749e-16)	(2.087129e+00 -3.133981e-01 -1.518083e-20)
0.00486634    	(1.392174e+01 1.189006e+02 2.563475e-16)	(1.183162e+01 1.192150e+02 2.563644e-16)	(2.090118e+00 -3.144172e-01 -1.688465e-20)
0.00490663    	(1.390335e+01 1.192658e+02 2.518176e-16)	(1.180990e+01 1.195810e+02 2.518217e-16)	(2.093445e+00 -3.152053e-01 -4.172550e-21)
0.00494684    	(1.406375e+01 1.196257e+02 2.466476e-16)	(1.196814e+01 1.199415e+02 2.466518e-16)	(2.095610e+00 -3.158058e-01 -4.185418e-21)
0.00498697    	(1.410541e+01 1.201409e+02 2.417992e-16)	(1.200718e+01 1.204572e+02 2.418041e-16)	(2.098224e+00 -3.163302e-01 -4.836373e-21)
0.005027      	(1.421744e+01 1.204559e+02 2.371618e-16)	(1.211652e+01 1.207727e+02 2.371701e-16)	(2.100922e+00 -3.167864e-01 -8.322213e-21)
0.00506698    	(1.417556e+01 1.207823e+02 2.329433e-16)	(1.207168e+01 1.210994e+02 2.329489e-16)	(2.103879e+00 -3.170826e-01 -5.672907e-21)
0.0051069     	(1.434144e+01 1.211986e+02 2.287694e-16)	(1.223539e+01 1.215161e+02 2.287731e-16)	(2.106045e+00 -3.175126e-01 -3.703802e-21)
0.00514677    	(1.436629e+01 1.216461e+02 2.254522e-16)	(1.225793e+01 1.219641e+02 2.254533e-16)	(2.108358e+00 -3.179358e-01 -1.122203e-21)
0.00518659    	(1.446443e+01 1.219677e+02 2.217736e-16)	(1.235454e+01 1.222862e+02 2.217721e-16)	(2.109893e+00 -3.184908e-01 1.518328e-21)
0.00522639    	(1.447585e+01 1.223899e+02 2.183861e-16)	(1.236464e+01 1.227089e+02 2.183822e-16)	(2.111208e+00 -3.190453e-01 3.930733e-21)
0.00526618    	(1.454479e+01 1.225974e+02 2.149885e-16)	(1.243138e+01 1.229170e+02 2.149810e-16)	(2.113403e+00 -3.196439e-01 7.574235e-21)
0.00530597    	(1.459997e+01 1.231070e+02 2.120426e-16)	(1.248416e+01 1.234270e+02 2.120319e-16)	(2.115804e+00 -3.199821e-01 1.073938e-20)
0.00534576    	(1.473807e+01 1.234819e+02 2.082646e-16)	(1.262124e+01 1.238025e+02 2.082514e-16)	(2.116829e+00 -3.205329e-01 1.316997e-20)
0.00538556    	(1.464722e+01 1.237094e+02 2.061694e-16)	(1.252951e+01 1.240304e+02 2.061544e-16)	(2.117714e+00 -3.210255e-01 1.501837e-20)
0.0054254     	(1.471971e+01 1.239228e+02 2.026704e-16)	(1.260043e+01 1.242444e+02 2.026552e-16)	(2.119276e+00 -3.215820e-01 1.522884e-20)
0.00546529    	(1.477514e+01 1.244718e+02 2.007856e-16)	(1.265505e+01 1.247939e+02 2.007695e-16)	(2.120093e+00 -3.220632e-01 1.606048e-20)
0.00550521    	(1.490823e+01 1.248785e+02 1.988060e-16)	(1.278667e+01 1.252009e+02 1.987903e-16)	(2.121561e+00 -3.223669e-01 1.573695e-20)
0.0055452     	(1.483778e+01 1.251569e+02 1.969092e-16)	(1.271524e+01 1.254795e+02 1.968935e-16)	(2.122542e+00 -3.226448e-01 1.571478e-20)
0.00558524    	(1.494246e+01 1.254630e+02 1.956435e-16)	(1.281700e+01 1.257854e+02 1.956376e-16)	(2.125458e+00 -3.223919e-01 5.973483e-21)
0.00562535    	(1.497297e+01 1.258769e+02 1.947143e-16)	(1.284620e+01 1.261995e+02 1.947028e-16)	(2.126773e+00 -3.225633e-01 1.154113e-20)
0.00566552    	(1.516377e+01 1.263644e+02 1.940825e-16)	(1.303580e+01 1.266871e+02 1.940773e-16)	(2.127969e+00 -3.227352e-01 5.171368e-21)
0.00570577    	(1.512485e+01 1.266674e+02 1.938385e-16)	(1.299642e+01 1.269905e+02 1.938357e-16)	(2.128436e+00 -3.230528e-01 2.785140e-21)
0.00574608    	(1.522676e+01 1.269883e+02 1.940736e-16)	(1.309677e+01 1.273115e+02 1.940625e-16)	(2.129994e+00 -3.231140e-01 1.114364e-20)
0.00578648    	(1.524193e+01 1.274403e+02 1.942884e-16)	(1.311184e+01 1.277638e+02 1.942824e-16)	(2.130085e+00 -3.234524e-01 6.035957e-21)
0.00582695    	(1.550532e+01 1.279694e+02 1.955150e-16)	(1.337455e+01 1.282930e+02 1.955188e-16)	(2.130770e+00 -3.235765e-01 -3.807653e-21)
0.00586751    	(1.553040e+01 1.284745e+02 1.969457e-16)	(1.339876e+01 1.287982e+02 1.969533e-16)	(2.131638e+00 -3.237093e-01 -7.604187e-21)
0.00590813    	(1.558667e+01 1.287414e+02 1.977146e-16)	(1.345471e+01 1.290654e+02 1.977235e-16)	(2.131963e+00 -3.239979e-01 -8.915046e-21)
0.00594885    	(1.560784e+01 1.291487e+02 1.977435e-16)	(1.347611e+01 1.294730e+02 1.977553e-16)	(2.131730e+00 -3.243103e-01 -1.185023e-20)
0.00598965    	(1.587079e+01 1.298396e+02 1.986682e-16)	(1.373869e+01 1.301641e+02 1.986814e-16)	(2.132102e+00 -3.244863e-01 -1.324106e-20)
0.00603053    	(1.603459e+01 1.304933e+02 1.984862e-16)	(1.390280e+01 1.308183e+02 1.984973e-16)	(2.131795e+00 -3.249737e-01 -1.115047e-20)
0.00607149    	(1.602462e+01 1.307407e+02 1.980166e-16)	(1.389335e+01 1.310661e+02 1.980299e-16)	(2.131271e+00 -3.253914e-01 -1.338558e-20)
0.00611242    	(1.607920e+01 1.311693e+02 1.961934e-16)	(1.394859e+01 1.314950e+02 1.962025e-16)	(2.130606e+00 -3.256459e-01 -9.072123e-21)
0.00615333    	(1.628177e+01 1.318368e+02 1.948194e-16)	(1.415174e+01 1.321627e+02 1.948232e-16)	(2.130022e+00 -3.259005e-01 -3.803916e-21)
0.00619415    	(1.653272e+01 1.326214e+02 1.928182e-16)	(1.440191e+01 1.329473e+02 1.928177e-16)	(2.130810e+00 -3.259059e-01 4.388877e-22)
0.00623488    	(1.651772e+01 1.329332e+02 1.904375e-16)	(1.438713e+01 1.332591e+02 1.904300e-16)	(2.130592e+00 -3.259467e-01 7.456235e-21)
0.00627556    	(1.658823e+01 1.333641e+02 1.861498e-16)	(1.445813e+01 1.336902e+02 1.861369e-16)	(2.130097e+00 -3.260926e-01 1.297755e-20)
0.00631617    	(1.671353e+01 1.339470e+02 1.826899e-16)	(1.458362e+01 1.342731e+02 1.826723e-16)	(2.129917e+00 -3.261690e-01 1.759441e-20)
0.00635672    	(1.698118e+01 1.346788e+02 1.792124e-16)	(1.485225e+01 1.350052e+02 1.791912e-16)	(2.128926e+00 -3.263867e-01 2.120222e-20)
0.00639723    	(1.700903e+01 1.350779e+02 1.763106e-16)	(1.488006e+01 1.354045e+02 1.762847e-16)	(2.128974e+00 -3.265678e-01 2.592357e-20)
0.00643768    	(1.711402e+01 1.355897e+02 1.716625e-16)	(1.498544e+01 1.359162e+02 1.716372e-16)	(2.128583e+00 -3.265292e-01 2.533763e-20)
0.00647807    	(1.716597e+01 1.360230e+02 1.675230e-16)	(1.503864e+01 1.363497e+02 1.674983e-16)	(2.127328e+00 -3.266716e-01 2.460857e-20)
0.00651844    	(1.747882e+01 1.368992e+02 1.652011e-16)	(1.535275e+01 1.372259e+02 1.651781e-16)	(2.126076e+00 -3.267546e-01 2.296023e-20)
0.00655875    	(1.761386e+01 1.374956e+02 1.642230e-16)	(1.548746e+01 1.378220e+02 1.642022e-16)	(2.126398e+00 -3.264655e-01 2.084541e-20)
0.00659903    	(1.766788e+01 1.379195e+02 1.638563e-16)	(1.554315e+01 1.382460e+02 1.638378e-16)	(2.124730e+00 -3.264817e-01 1.854456e-20)
0.00663927    	(1.775334e+01 1.383748e+02 1.661557e-16)	(1.563017e+01 1.387013e+02 1.661398e-16)	(2.123170e+00 -3.265393e-01 1.583072e-20)
0.00667947    	(1.804940e+01 1.393381e+02 1.699293e-16)	(1.592786e+01 1.396647e+02 1.699164e-16)	(2.121543e+00 -3.265713e-01 1.293397e-20)
0.00671965    	(1.820906e+01 1.399167e+02 1.760433e-16)	(1.608939e+01 1.402433e+02 1.760327e-16)	(2.119666e+00 -3.265220e-01 1.058015e-20)
0.00675977    	(1.823108e+01 1.403780e+02 1.840879e-16)	(1.611341e+01 1.407044e+02 1.840795e-16)	(2.117674e+00 -3.264003e-01 8.440303e-21)
0.00679985    	(1.835289e+01 1.409190e+02 1.948678e-16)	(1.623706e+01 1.412453e+02 1.948616e-16)	(2.115825e+00 -3.263245e-01 6.234388e-21)
0.00683991    	(1.862622e+01 1.418141e+02 2.057755e-16)	(1.651200e+01 1.421404e+02 2.057709e-16)	(2.114219e+00 -3.262437e-01 4.525422e-21)
0.00687992    	(1.881382e+01 1.424538e+02 2.177713e-16)	(1.670046e+01 1.427800e+02 2.177766e-16)	(2.113358e+00 -3.261739e-01 -5.238314e-21)
0.00691991    	(1.887603e+01 1.430992e+02 2.315128e-16)	(1.676506e+01 1.434251e+02 2.315196e-16)	(2.110963e+00 -3.259672e-01 -6.779776e-21)
0.00695985    	(1.893772e+01 1.434587e+02 2.462234e-16)	(1.682900e+01 1.437845e+02 2.462319e-16)	(2.108723e+00 -3.258102e-01 -8.539185e-21)
0.00699977    	(1.916516e+01 1.442976e+02 2.596444e-16)	(1.705820e+01 1.446232e+02 2.596550e-16)	(2.106965e+00 -3.256470e-01 -1.057581e-20)
0.00703965    	(1.935170e+01 1.449257e+02 2.738040e-16)	(1.724705e+01 1.452513e+02 2.738134e-16)	(2.104657e+00 -3.256768e-01 -9.325604e-21)
0.00707951    	(1.937783e+01 1.454579e+02 2.892607e-16)	(1.727590e+01 1.457832e+02 2.892727e-16)	(2.101934e+00 -3.253710e-01 -1.202739e-20)
0.00711934    	(1.946614e+01 1.459365e+02 3.054903e-16)	(1.736678e+01 1.462616e+02 3.055061e-16)	(2.099353e+00 -3.251030e-01 -1.588306e-20)
0.00715915    	(1.964446e+01 1.467574e+02 3.199790e-16)	(1.754771e+01 1.470822e+02 3.199999e-16)	(2.096748e+00 -3.247978e-01 -2.088773e-20)
0.00719895    	(1.989288e+01 1.475020e+02 3.340310e-16)	(1.779799e+01 1.478262e+02 3.340584e-16)	(2.094892e+00 -3.241524e-01 -2.743269e-20)
0.00723871    	(1.992501e+01 1.481020e+02 3.491132e-16)	(1.783270e+01 1.484259e+02 3.491469e-16)	(2.092316e+00 -3.238924e-01 -3.370034e-20)
0.00727843    	(1.997074e+01 1.484795e+02 3.670220e-16)	(1.788114e+01 1.488030e+02 3.670621e-16)	(2.089598e+00 -3.235017e-01 -4.003760e-20)
0.00731813    	(2.018231e+01 1.493707e+02 3.806253e-16)	(1.809542e+01 1.496938e+02 3.806714e-16)	(2.086888e+00 -3.231126e-01 -4.608290e-20)
0.00735778    	(2.046898e+01 1.502231e+02 3.931998e-16)	(1.838426e+01 1.505455e+02 3.932511e-16)	(2.084727e+00 -3.224175e-01 -5.130244e-20)
0.00739743    	(2.050885e+01 1.508082e+02 4.061199e-16)	(1.842670e+01 1.511302e+02 4.061757e-16)	(2.082149e+00 -3.220516e-01 -5.576136e-20)
0.00743703    	(2.059382e+01 1.512653e+02 4.202429e-16)	(1.851446e+01 1.515870e+02 4.203022e-16)	(2.079360e+00 -3.217325e-01 -5.932514e-20)
0.00747661    	(2.073578e+01 1.520122e+02 4.303784e-16)	(1.865901e+01 1.523335e+02 4.304404e-16)	(2.076769e+00 -3.213282e-01 -6.198290e-20)
0.00751616    	(2.105210e+01 1.528986e+02 4.387012e-16)	(1.897817e+01 1.532195e+02 4.387646e-16)	(2.073933e+00 -3.208993e-01 -6.335661e-20)
0.00755569    	(2.117598e+01 1.536103e+02 4.469917e-16)	(1.910502e+01 1.539308e+02 4.470556e-16)	(2.070956e+00 -3.204416e-01 -6.386642e-20)
0.00759519    	(2.122208e+01 1.540854e+02 4.562664e-16)	(1.915397e+01 1.544056e+02 4.563299e-16)	(2.068103e+00 -3.201275e-01 -6.345741e-20)
0.00763467    	(2.135921e+01 1.547916e+02 4.633816e-16)	(1.929389e+01 1.551113e+02 4.634448e-16)	(2.065322e+00 -3.196899e-01 -6.310607e-20)
0.0076741     	(2.159513e+01 1.554757e+02 4.687355e-16)	(1.953177e+01 1.557951e+02 4.687970e-16)	(2.063351e+00 -3.194126e-01 -6.156014e-20)
0.00771353    	(2.177562e+01 1.561705e+02 4.718627e-16)	(1.971469e+01 1.564893e+02 4.719242e-16)	(2.060930e+00 -3.188171e-01 -6.156384e-20)
0.00775291    	(2.182954e+01 1.567309e+02 4.763300e-16)	(1.977108e+01 1.570490e+02 4.763914e-16)	(2.058461e+00 -3.181054e-01 -6.148451e-20)
0.00779227    	(2.194011e+01 1.572492e+02 4.821035e-16)	(1.988452e+01 1.575669e+02 4.821648e-16)	(2.055594e+00 -3.176797e-01 -6.128355e-20)
0.00783161    	(2.212402e+01 1.578785e+02 4.831702e-16)	(2.007124e+01 1.581957e+02 4.832312e-16)	(2.052785e+00 -3.172817e-01 -6.098663e-20)
0.00787093    	(2.235977e+01 1.586712e+02 4.814155e-16)	(2.030987e+01 1.589881e+02 4.814754e-16)	(2.049896e+00 -3.168777e-01 -5.990185e-20)
0.00791021    	(2.240850e+01 1.591448e+02 4.793360e-16)	(2.036150e+01 1.594611e+02 4.793926e-16)	(2.046992e+00 -3.163867e-01 -5.666460e-20)
0.00794949    	(2.249826e+01 1.596030e+02 4.749119e-16)	(2.045346e+01 1.599186e+02 4.749622e-16)	(2.044793e+00 -3.156416e-01 -5.028934e-20)
0.00798876    	(2.261337e+01 1.601335e+02 4.672388e-16)	(2.057037e+01 1.604485e+02 4.672829e-16)	(2.043005e+00 -3.150518e-01 -4.413528e-20)
0.00802801    	(2.278527e+01 1.606802e+02 4.568060e-16)	(2.074480e+01 1.609950e+02 4.568383e-16)	(2.040467e+00 -3.148342e-01 -3.231036e-20)
0.00806723    	(2.291672e+01 1.612180e+02 4.447213e-16)	(2.087899e+01 1.615324e+02 4.447442e-16)	(2.037723e+00 -3.143972e-01 -2.285345e-20)
0.00810643    	(2.296448e+01 1.616325e+02 4.300480e-16)	(2.092973e+01 1.619464e+02 4.300603e-16)	(2.034749e+00 -3.139075e-01 -1.237039e-20)
0.0081456     	(2.296616e+01 1.618792e+02 4.120646e-16)	(2.093417e+01 1.621926e+02 4.120661e-16)	(2.031990e+00 -3.134685e-01 -1.438404e-21)
0.00818476    	(2.313041e+01 1.623860e+02 3.938596e-16)	(2.110121e+01 1.626991e+02 3.938495e-16)	(2.029202e+00 -3.130303e-01 1.017067e-20)
0.00822389    	(2.334333e+01 1.630368e+02 3.751558e-16)	(2.131693e+01 1.633496e+02 3.751343e-16)	(2.026396e+00 -3.127224e-01 2.153036e-20)
0.00826303    	(2.339577e+01 1.634463e+02 3.566445e-16)	(2.137246e+01 1.637585e+02 3.566126e-16)	(2.023306e+00 -3.122017e-01 3.187594e-20)
0.00830215    	(2.333773e+01 1.634165e+02 3.364158e-16)	(2.131733e+01 1.637283e+02 3.363737e-16)	(2.020400e+00 -3.117218e-01 4.209128e-20)
0.00834126    	(2.347568e+01 1.639150e+02 3.178893e-16)	(2.145816e+01 1.642263e+02 3.178376e-16)	(2.017519e+00 -3.112538e-01 5.168867e-20)
0.00838036    	(2.365086e+01 1.644057e+02 2.997034e-16)	(2.163629e+01 1.647164e+02 2.996429e-16)	(2.014571e+00 -3.107773e-01 6.052329e-20)
0.00841946    	(2.367364e+01 1.646424e+02 2.832478e-16)	(2.166215e+01 1.649527e+02 2.831804e-16)	(2.011489e+00 -3.102314e-01 6.747340e-20)
0.00845857    	(2.363982e+01 1.647431e+02 2.674161e-16)	(2.163101e+01 1.650529e+02 2.673422e-16)	(2.008810e+00 -3.098176e-01 7.394229e-20)
0.00849767    	(2.369919e+01 1.650469e+02 2.533301e-16)	(2.169261e+01 1.653559e+02 2.532542e-16)	(2.006577e+00 -3.089947e-01 7.586935e-20)
0.00853677    	(2.385379e+01 1.655288e+02 2.409006e-16)	(2.185009e+01 1.658372e+02 2.408163e-16)	(2.003693e+00 -3.084330e-01 8.437450e-20)
0.00857588    	(2.404925e+01 1.661266e+02 2.303107e-16)	(2.204776e+01 1.664341e+02 2.302145e-16)	(2.001489e+00 -3.075340e-01 9.619354e-20)
0.008615      	(2.403568e+01 1.664084e+02 2.203236e-16)	(2.203748e+01 1.667153e+02 2.202227e-16)	(1.998203e+00 -3.068724e-01 1.008618e-19)