# Moment      
# CofR        : (5.000000e+00 5.000000e-03 0.000000e+00)
#
# Time        	(total_x total_y total_z)	(pressure_x pressure_y pressure_z)	(viscous_x viscous_y viscous_z)
1.20005e-05   	(-5.836513e+03 3.154551e+03 -5.762736e+05)	(-5.836518e+03 3.154506e+03 -5.762741e+05)	(4.562564e-03 4.509283e-02 4.659904e-01)
2.64017e-05   	(-1.626040e+02 1.231095e+02 -1.605881e+04)	(-1.626094e+02 1.230649e+02 -1.605935e+04)	(5.352254e-03 4.456461e-02 5.440840e-01)
4.36833e-05   	(-2.360688e+01 2.320565e+01 -2.326864e+03)	(-2.361264e+01 2.316083e+01 -2.327449e+03)	(5.758622e-03 4.482123e-02 5.843223e-01)
6.44211e-05   	(-1.254130e+01 7.736459e+00 -1.240749e+03)	(-1.254727e+01 7.691267e+00 -1.241354e+03)	(5.966430e-03 4.519128e-02 6.049047e-01)
8.93055e-05   	(-9.651267e+00 3.426843e+00 -9.574921e+02)	(-9.657376e+00 3.381197e+00 -9.581112e+02)	(6.109254e-03 4.564581e-02 6.190660e-01)
0.000118622   	(-9.330104e+00 2.501497e+00 -9.263068e+02)	(-9.336326e+00 2.455314e+00 -9.269370e+02)	(6.222115e-03 4.618291e-02 6.302768e-01)
0.000152377   	(-9.480834e+00 2.665171e+00 -9.410621e+02)	(-9.487151e+00 2.618347e+00 -9.417019e+02)	(6.316909e-03 4.682435e-02 6.397225e-01)
0.000190574   	(-1.018405e+01 3.181484e+00 -1.010266e+03)	(-1.019045e+01 3.133899e+00 -1.010914e+03)	(6.401619e-03 4.758509e-02 6.481923e-01)
0.000233228   	(-1.128746e+01 3.658820e+00 -1.119189e+03)	(-1.129394e+01 3.610342e+00 -1.119846e+03)	(6.481307e-03 4.847717e-02 6.561861e-01)
0.000277687   	(-1.192030e+01 3.939129e+00 -1.181757e+03)	(-1.192686e+01 3.889703e+00 -1.182420e+03)	(6.556231e-03 4.942599e-02 6.637204e-01)
0.000322107   	(-1.210918e+01 4.039608e+00 -1.200540e+03)	(-1.211582e+01 3.989215e+00 -1.201211e+03)	(6.635799e-03 5.039256e-02 6.717306e-01)
0.000366448   	(-1.194676e+01 4.029196e+00 -1.184675e+03)	(-1.195349e+01 3.977844e+00 -1.185356e+03)	(6.723396e-03 5.135208e-02 6.805523e-01)
0.00041071    	(-1.135618e+01 3.892702e+00 -1.126463e+03)	(-1.136300e+01 3.840408e+00 -1.127154e+03)	(6.826214e-03 5.229448e-02 6.909014e-01)
0.000454893   	(-1.094600e+01 3.787491e+00 -1.086008e+03)	(-1.095295e+01 3.734278e+00 -1.086711e+03)	(6.948804e-03 5.321214e-02 7.032309e-01)
0.000499018   	(-1.066263e+01 3.705835e+00 -1.058073e+03)	(-1.066972e+01 3.651735e+00 -1.058791e+03)	(7.095064e-03 5.410078e-02 7.179283e-01)
0.000541943   	(-1.043696e+01 3.630981e+00 -1.035858e+03)	(-1.044422e+01 3.576042e+00 -1.036592e+03)	(7.263744e-03 5.493839e-02 7.348663e-01)
0.000583315   	(-1.022457e+01 3.559053e+00 -1.014949e+03)	(-1.023202e+01 3.503334e+00 -1.015703e+03)	(7.451133e-03 5.571935e-02 7.536730e-01)
0.000623418   	(-1.003852e+01 3.494804e+00 -9.966265e+02)	(-1.004618e+01 3.438356e+00 -9.974005e+02)	(7.653881e-03 5.644805e-02 7.740146e-01)
0.000662543   	(-9.855085e+00 3.447045e+00 -9.785155e+02)	(-9.862954e+00 3.389913e+00 -9.793111e+02)	(7.869441e-03 5.713208e-02 7.956369e-01)
0.000700779   	(-9.716776e+00 3.420034e+00 -9.648259e+02)	(-9.724871e+00 3.362257e+00 -9.656442e+02)	(8.094974e-03 5.777692e-02 8.182558e-01)
0.000738393   	(-9.586853e+00 3.396055e+00 -9.519655e+02)	(-9.595182e+00 3.337666e+00 -9.528072e+02)	(8.328616e-03 5.838944e-02 8.416845e-01)
0.000775569   	(-9.486603e+00 3.380345e+00 -9.420258e+02)	(-9.495172e+00 3.321370e+00 -9.428915e+02)	(8.568394e-03 5.897465e-02 8.657254e-01)
0.000812401   	(-9.377776e+00 3.362466e+00 -9.312379e+02)	(-9.386588e+00 3.302930e+00 -9.321281e+02)	(8.812496e-03 5.953567e-02 8.901971e-01)
0.000849096   	(-9.266534e+00 3.339808e+00 -9.202205e+02)	(-9.275593e+00 3.279731e+00 -9.211355e+02)	(9.059687e-03 6.007678e-02 9.149766e-01)
0.000885764   	(-9.160190e+00 3.315124e+00 -9.096876e+02)	(-9.169499e+00 3.254524e+00 -9.106276e+02)	(9.309132e-03 6.060032e-02 9.399804e-01)
0.000922514   	(-9.071601e+00 3.289409e+00 -9.009183e+02)	(-9.081160e+00 3.228300e+00 -9.018834e+02)	(9.559368e-03 6.110834e-02 9.650631e-01)
0.00095947    	(-8.995555e+00 3.262891e+00 -8.933948e+02)	(-9.005365e+00 3.201288e+00 -8.943850e+02)	(9.809735e-03 6.160304e-02 9.901593e-01)
0.000996647   	(-8.932767e+00 3.235607e+00 -8.871896e+02)	(-8.942827e+00 3.173522e+00 -8.882047e+02)	(1.005921e-02 6.208516e-02 1.015167e+00)
0.00103327    	(-8.929899e+00 3.212935e+00 -8.869168e+02)	(-8.940202e+00 3.150388e+00 -8.879564e+02)	(1.030313e-02 6.254747e-02 1.039618e+00)
0.00106949    	(-8.870319e+00 3.170050e+00 -8.810773e+02)	(-8.880862e+00 3.107056e+00 -8.821409e+02)	(1.054234e-02 6.299399e-02 1.063596e+00)
0.00110536    	(-8.890934e+00 3.120957e+00 -8.832011e+02)	(-8.901710e+00 3.057531e+00 -8.842881e+02)	(1.077606e-02 6.342566e-02 1.087025e+00)
0.00114093    	(-8.993065e+00 3.070335e+00 -8.934033e+02)	(-9.004069e+00 3.006493e+00 -8.945132e+02)	(1.100405e-02 6.384217e-02 1.109879e+00)
0.00117633    	(-9.233528e+00 3.033597e+00 -9.172665e+02)	(-9.244754e+00 2.969353e+00 -9.183986e+02)	(1.122580e-02 6.424402e-02 1.132109e+00)
0.00121158    	(-9.605644e+00 3.003771e+00 -9.541652e+02)	(-9.617087e+00 2.939139e+00 -9.553190e+02)	(1.144233e-02 6.463210e-02 1.153816e+00)
0.00124678    	(-1.011729e+01 3.004621e+00 -1.004861e+03)	(-1.012894e+01 2.939612e+00 -1.006036e+03)	(1.165475e-02 6.500883e-02 1.175109e+00)
0.00128198    	(-1.081833e+01 3.007616e+00 -1.074393e+03)	(-1.083019e+01 2.942241e+00 -1.075589e+03)	(1.186417e-02 6.537484e-02 1.196099e+00)
0.00131725    	(-1.207705e+01 3.014200e+00 -1.199245e+03)	(-1.208912e+01 2.948473e+00 -1.200461e+03)	(1.207015e-02 6.572647e-02 1.216736e+00)
0.00135267    	(-1.389306e+01 2.996859e+00 -1.379444e+03)	(-1.390533e+01 2.930798e+00 -1.380681e+03)	(1.227273e-02 6.606110e-02 1.237021e+00)
0.0013883     	(-1.476480e+01 2.918193e+00 -1.466166e+03)	(-1.477728e+01 2.851793e+00 -1.467424e+03)	(1.248359e-02 6.639996e-02 1.258121e+00)
0.00142419    	(-1.304084e+01 2.671432e+00 -1.295714e+03)	(-1.305357e+01 2.604649e+00 -1.296997e+03)	(1.273275e-02 6.678391e-02 1.283023e+00)
0.00146041    	(-1.078589e+01 2.278511e+00 -1.072721e+03)	(-1.079895e+01 2.211274e+00 -1.074036e+03)	(1.305629e-02 6.723731e-02 1.315306e+00)
0.00149699    	(-9.707685e+00 1.935369e+00 -9.662863e+02)	(-9.721140e+00 1.867607e+00 -9.676413e+02)	(1.345497e-02 6.776283e-02 1.355043e+00)
0.00153396    	(-8.841660e+00 1.647300e+00 -8.807232e+02)	(-8.855557e+00 1.578942e+00 -8.821223e+02)	(1.389725e-02 6.835783e-02 1.399111e+00)
0.00157126    	(-8.122134e+00 1.302639e+00 -8.097745e+02)	(-8.136484e+00 1.233621e+00 -8.112188e+02)	(1.434992e-02 6.901821e-02 1.444222e+00)
0.00160838    	(-7.391317e+00 8.631010e-01 -7.379262e+02)	(-7.406117e+00 7.933802e-01 -7.394153e+02)	(1.479966e-02 6.972075e-02 1.489054e+00)
0.00164534    	(-6.618177e+00 3.419676e-01 -6.619706e+02)	(-6.633413e+00 2.715235e-01 -6.635031e+02)	(1.523519e-02 7.044413e-02 1.532480e+00)
0.0016822     	(-5.525274e+00 -4.046795e-01 -5.546234e+02)	(-5.540918e+00 -4.758515e-01 -5.561966e+02)	(1.564390e-02 7.117198e-02 1.573252e+00)
0.00171898    	(-3.762674e+00 -1.575918e+00 -3.813975e+02)	(-3.778685e+00 -1.647797e+00 -3.830073e+02)	(1.601047e-02 7.187867e-02 1.609847e+00)
0.00175575    	(-1.003006e+00 -3.374395e+00 -1.100270e+02)	(-1.019306e+00 -3.446903e+00 -1.116658e+02)	(1.630016e-02 7.250833e-02 1.638818e+00)
0.00179255    	(1.645964e+00 -4.902443e+00 1.509233e+02)	(1.629465e+00 -4.975469e+00 1.492645e+02)	(1.649895e-02 7.302546e-02 1.658767e+00)
0.00182944    	(3.791076e-01 -3.638407e+00 2.744328e+01)	(3.624541e-01 -3.711904e+00 2.576895e+01)	(1.665354e-02 7.349732e-02 1.674328e+00)
0.00186646    	(-2.917287e+00 -1.266373e+00 -2.959316e+02)	(-2.934087e+00 -1.340358e+00 -2.976207e+02)	(1.680005e-02 7.398524e-02 1.689080e+00)
0.00190361    	(-4.567677e+00 -2.853350e-01 -4.580712e+02)	(-4.584609e+00 -3.597816e-01 -4.597736e+02)	(1.693211e-02 7.444662e-02 1.702385e+00)
0.00194094    	(-4.512233e+00 -3.136095e-01 -4.524745e+02)	(-4.529253e+00 -3.884814e-01 -4.541858e+02)	(1.701998e-02 7.487186e-02 1.711298e+00)
0.00197843    	(-4.664663e+00 -1.471252e-01 -4.673177e+02)	(-4.681743e+00 -2.224022e-01 -4.690350e+02)	(1.707914e-02 7.527704e-02 1.717357e+00)
0.00201572    	(-5.580820e+00 4.111983e-01 -5.575508e+02)	(-5.597954e+00 3.355415e-01 -5.592737e+02)	(1.713342e-02 7.565679e-02 1.722927e+00)
0.00205291    	(-6.523624e+00 9.507149e-01 -6.505021e+02)	(-6.540822e+00 8.747024e-01 -6.522316e+02)	(1.719772e-02 7.601246e-02 1.729489e+00)
0.00208998    	(-7.325094e+00 1.350486e+00 -7.295936e+02)	(-7.342364e+00 1.274135e+00 -7.313304e+02)	(1.726985e-02 7.635071e-02 1.736825e+00)
0.00212703    	(-7.662681e+00 1.534698e+00 -7.629074e+02)	(-7.680029e+00 1.458022e+00 -7.646521e+02)	(1.734735e-02 7.667628e-02 1.744693e+00)
0.00216405    	(-7.881066e+00 1.644613e+00 -7.844665e+02)	(-7.898493e+00 1.567628e+00 -7.862193e+02)	(1.742726e-02 7.698439e-02 1.752800e+00)
0.00220108    	(-8.015817e+00 1.712970e+00 -7.977777e+02)	(-8.033324e+00 1.635696e+00 -7.995385e+02)	(1.750669e-02 7.727350e-02 1.760858e+00)
0.00223814    	(-8.116457e+00 1.760817e+00 -8.077185e+02)	(-8.134044e+00 1.683270e+00 -8.094875e+02)	(1.758692e-02 7.754636e-02 1.768996e+00)
0.00227524    	(-8.183254e+00 1.794436e+00 -8.143233e+02)	(-8.200921e+00 1.716631e+00 -8.161005e+02)	(1.766750e-02 7.780448e-02 1.777167e+00)
0.00231238    	(-8.243341e+00 1.824413e+00 -8.202639e+02)	(-8.261089e+00 1.746364e+00 -8.220492e+02)	(1.774793e-02 7.804931e-02 1.785324e+00)
0.0023496     	(-8.304354e+00 1.850009e+00 -8.262965e+02)	(-8.322182e+00 1.771730e+00 -8.280900e+02)	(1.782893e-02 7.827902e-02 1.793537e+00)
0.00238685    	(-8.353539e+00 1.871063e+00 -8.311617e+02)	(-8.371447e+00 1.792566e+00 -8.329633e+02)	(1.790861e-02 7.849775e-02 1.801619e+00)
0.00242419    	(-8.397778e+00 1.889122e+00 -8.355381e+02)	(-8.415765e+00 1.810420e+00 -8.373476e+02)	(1.798710e-02 7.870200e-02 1.809582e+00)
0.00246157    	(-8.425270e+00 1.898389e+00 -8.382614e+02)	(-8.443335e+00 1.819494e+00 -8.400788e+02)	(1.806470e-02 7.889468e-02 1.817457e+00)
0.00249907    	(-8.444250e+00 1.902688e+00 -8.401472e+02)	(-8.462392e+00 1.823607e+00 -8.419725e+02)	(1.814173e-02 7.908108e-02 1.825276e+00)
0.00253658    	(-8.471383e+00 1.914895e+00 -8.428313e+02)	(-8.489602e+00 1.835638e+00 -8.446644e+02)	(1.821863e-02 7.925666e-02 1.833081e+00)
0.00257421    	(-8.474964e+00 1.915285e+00 -8.431961e+02)	(-8.493258e+00 1.835861e+00 -8.450368e+02)	(1.829382e-02 7.942381e-02 1.840716e+00)
0.00261186    	(-8.502007e+00 1.924468e+00 -8.458733e+02)	(-8.520374e+00 1.844889e+00 -8.477214e+02)	(1.836631e-02 7.957907e-02 1.848083e+00)
0.00264959    	(-8.504887e+00 1.922322e+00 -8.461671e+02)	(-8.523326e+00 1.842591e+00 -8.480226e+02)	(1.843927e-02 7.973126e-02 1.855496e+00)
0.00268738    	(-8.509372e+00 1.919504e+00 -8.466208e+02)	(-8.527881e+00 1.839631e+00 -8.484833e+02)	(1.850832e-02 7.987290e-02 1.862519e+00)
0.00272523    	(-8.528960e+00 1.927573e+00 -8.485588e+02)	(-8.547537e+00 1.847564e+00 -8.504283e+02)	(1.857722e-02 8.000904e-02 1.869526e+00)
0.00276318    	(-8.538462e+00 1.928180e+00 -8.495056e+02)	(-8.557105e+00 1.848043e+00 -8.513819e+02)	(1.864301e-02 8.013685e-02 1.876225e+00)
0.00280115    	(-8.547698e+00 1.929207e+00 -8.504252e+02)	(-8.566404e+00 1.848947e+00 -8.523079e+02)	(1.870666e-02 8.026001e-02 1.882709e+00)
0.00283922    	(-8.560490e+00 1.930934e+00 -8.516975e+02)	(-8.579260e+00 1.850556e+00 -8.535867e+02)	(1.876953e-02 8.037784e-02 1.889116e+00)
0.00287731    	(-8.582512e+00 1.936327e+00 -8.538809e+02)	(-8.601340e+00 1.855839e+00 -8.557760e+02)	(1.882855e-02 8.048851e-02 1.895139e+00)
0.00291546    	(-8.604784e+00 1.941652e+00 -8.560885e+02)	(-8.623670e+00 1.861057e+00 -8.579895e+02)	(1.888598e-02 8.059409e-02 1.901001e+00)
0.00295368    	(-8.619244e+00 1.942207e+00 -8.575279e+02)	(-8.638185e+00 1.861512e+00 -8.594345e+02)	(1.894103e-02 8.069542e-02 1.906628e+00)
0.00299192    	(-8.631289e+00 1.945372e+00 -8.587266e+02)	(-8.650282e+00 1.864579e+00 -8.606386e+02)	(1.899318e-02 8.079377e-02 1.911965e+00)
0.00303025    	(-8.646019e+00 1.949101e+00 -8.601911e+02)	(-8.665062e+00 1.868215e+00 -8.621081e+02)	(1.904256e-02 8.088598e-02 1.917025e+00)
0.00306857    	(-8.657271e+00 1.947012e+00 -8.613155e+02)	(-8.676361e+00 1.866036e+00 -8.632374e+02)	(1.908978e-02 8.097548e-02 1.921870e+00)
0.00310695    	(-8.668510e+00 1.947558e+00 -8.624365e+02)	(-8.687644e+00 1.866494e+00 -8.643630e+02)	(1.913413e-02 8.106330e-02 1.926428e+00)
0.00314538    	(-8.680440e+00 1.947857e+00 -8.636263e+02)	(-8.699618e+00 1.866706e+00 -8.655572e+02)	(1.917800e-02 8.115142e-02 1.930936e+00)
0.00318382    	(-8.689732e+00 1.947031e+00 -8.645553e+02)	(-8.708950e+00 1.865792e+00 -8.664904e+02)	(1.921878e-02 8.123838e-02 1.935137e+00)
0.00322233    	(-8.693502e+00 1.943624e+00 -8.649399e+02)	(-8.712758e+00 1.862300e+00 -8.668790e+02)	(1.925671e-02 8.132351e-02 1.939054e+00)
0.00326081    	(-8.709962e+00 1.949036e+00 -8.665712e+02)	(-8.729256e+00 1.867628e+00 -8.685140e+02)	(1.929386e-02 8.140828e-02 1.942892e+00)
0.00329926    	(-8.729462e+00 1.949013e+00 -8.685091e+02)	(-8.748790e+00 1.867519e+00 -8.704556e+02)	(1.932830e-02 8.149471e-02 1.946459e+00)
0.00333771    	(-8.740426e+00 1.949360e+00 -8.695977e+02)	(-8.759786e+00 1.867781e+00 -8.715474e+02)	(1.935997e-02 8.157893e-02 1.949750e+00)
0.00337614    	(-8.765402e+00 1.953432e+00 -8.720771e+02)	(-8.784792e+00 1.871771e+00 -8.740300e+02)	(1.939052e-02 8.166128e-02 1.952928e+00)
0.00341458    	(-8.780077e+00 1.954895e+00 -8.735339e+02)	(-8.799497e+00 1.873148e+00 -8.754900e+02)	(1.942035e-02 8.174675e-02 1.956034e+00)
0.00345301    	(-8.788869e+00 1.954644e+00 -8.744128e+02)	(-8.808316e+00 1.872814e+00 -8.763717e+02)	(1.944708e-02 8.182977e-02 1.958830e+00)
0.00349146    	(-8.800237e+00 1.953633e+00 -8.755472e+02)	(-8.819708e+00 1.871724e+00 -8.775086e+02)	(1.947083e-02 8.190877e-02 1.961328e+00)
0.00352992    	(-8.821622e+00 1.957659e+00 -8.776662e+02)	(-8.841114e+00 1.875672e+00 -8.796298e+02)	(1.949231e-02 8.198688e-02 1.963600e+00)
0.00356842    	(-8.826743e+00 1.954269e+00 -8.781813e+02)	(-8.846256e+00 1.872202e+00 -8.801471e+02)	(1.951286e-02 8.206734e-02 1.965779e+00)
0.00360693    	(-8.827387e+00 1.946784e+00 -8.782587e+02)	(-8.846921e+00 1.864636e+00 -8.802267e+02)	(1.953384e-02 8.214794e-02 1.967999e+00)
0.00364547    	(-8.840559e+00 1.949185e+00 -8.795644e+02)	(-8.860113e+00 1.866956e+00 -8.815346e+02)	(1.955413e-02 8.222822e-02 1.970149e+00)
0.003684      	(-8.845025e+00 1.943396e+00 -8.800174e+02)	(-8.864599e+00 1.861085e+00 -8.819896e+02)	(1.957384e-02 8.231061e-02 1.972241e+00)
0.0037225     	(-8.859105e+00 1.945009e+00 -8.814129e+02)	(-8.878700e+00 1.862608e+00 -8.833874e+02)	(1.959476e-02 8.240131e-02 1.974454e+00)
0.00376094    	(-8.869029e+00 1.941561e+00 -8.824040e+02)	(-8.888643e+00 1.859072e+00 -8.843805e+02)	(1.961405e-02 8.248930e-02 1.976503e+00)
0.00379935    	(-8.880357e+00 1.942499e+00 -8.835266e+02)	(-8.899989e+00 1.859923e+00 -8.855050e+02)	(1.963138e-02 8.257634e-02 1.978356e+00)
0.00383758    	(-8.897699e+00 1.943033e+00 -8.852497e+02)	(-8.917350e+00 1.860366e+00 -8.872302e+02)	(1.965112e-02 8.266657e-02 1.980447e+00)
0.00387561    	(-8.898964e+00 1.939320e+00 -8.853831e+02)	(-8.918630e+00 1.856566e+00 -8.873652e+02)	(1.966648e-02 8.275382e-02 1.982099e+00)
0.00391351    	(-8.913577e+00 1.940164e+00 -8.868354e+02)	(-8.933257e+00 1.857325e+00 -8.888190e+02)	(1.968027e-02 8.283938e-02 1.983593e+00)
0.00395139    	(-8.924486e+00 1.939807e+00 -8.879206e+02)	(-8.944180e+00 1.856879e+00 -8.899056e+02)	(1.969379e-02 8.292740e-02 1.985059e+00)
0.00398929    	(-8.943351e+00 1.943303e+00 -8.897884e+02)	(-8.963060e+00 1.860287e+00 -8.917750e+02)	(1.970808e-02 8.301543e-02 1.986601e+00)
0.00402725    	(-8.957193e+00 1.943095e+00 -8.911648e+02)	(-8.976914e+00 1.859995e+00 -8.931527e+02)	(1.972069e-02 8.310001e-02 1.987975e+00)
0.00406529    	(-8.964966e+00 1.940922e+00 -8.919409e+02)	(-8.984701e+00 1.857733e+00 -8.939304e+02)	(1.973494e-02 8.318890e-02 1.989513e+00)
0.00410344    	(-8.984905e+00 1.946249e+00 -8.939144e+02)	(-9.004652e+00 1.862972e+00 -8.959053e+02)	(1.974700e-02 8.327731e-02 1.990830e+00)
0.00414169    	(-8.996705e+00 1.943616e+00 -8.950928e+02)	(-9.016466e+00 1.860250e+00 -8.970851e+02)	(1.976079e-02 8.336508e-02 1.992318e+00)
0.00418006    	(-9.009102e+00 1.945229e+00 -8.963224e+02)	(-9.028875e+00 1.861778e+00 -8.983161e+02)	(1.977332e-02 8.345063e-02 1.993682e+00)
0.00421859    	(-9.022500e+00 1.943290e+00 -8.976569e+02)	(-9.042286e+00 1.859750e+00 -8.996520e+02)	(1.978635e-02 8.353942e-02 1.995094e+00)
0.00425695    	(-9.040090e+00 1.948123e+00 -8.993990e+02)	(-9.059894e+00 1.864492e+00 -9.013959e+02)	(1.980382e-02 8.363023e-02 1.996947e+00)
0.00429503    	(-9.053653e+00 1.944723e+00 -9.007536e+02)	(-9.073469e+00 1.861012e+00 -9.027517e+02)	(1.981515e-02 8.371112e-02 1.998185e+00)
0.00433288    	(-9.063847e+00 1.948087e+00 -9.017610e+02)	(-9.083672e+00 1.864296e+00 -9.037603e+02)	(1.982573e-02 8.379092e-02 1.999349e+00)
0.00437053    	(-9.079605e+00 1.948654e+00 -9.033279e+02)	(-9.099440e+00 1.864784e+00 -9.053283e+02)	(1.983561e-02 8.387018e-02 2.000440e+00)
0.004408      	(-9.097997e+00 1.953499e+00 -9.051489e+02)	(-9.117842e+00 1.869553e+00 -9.071504e+02)	(1.984477e-02 8.394598e-02 2.001458e+00)
0.00444532    	(-9.120613e+00 1.958231e+00 -9.073885e+02)	(-9.140466e+00 1.874214e+00 -9.093909e+02)	(1.985296e-02 8.401713e-02 2.002377e+00)
0.00448251    	(-9.129098e+00 1.957373e+00 -9.082337e+02)	(-9.148960e+00 1.873283e+00 -9.102370e+02)	(1.986163e-02 8.409060e-02 2.003344e+00)
0.00451957    	(-9.149065e+00 1.961453e+00 -9.102133e+02)	(-9.168933e+00 1.877292e+00 -9.122174e+02)	(1.986827e-02 8.416078e-02 2.004106e+00)
0.00455652    	(-9.160919e+00 1.960353e+00 -9.113938e+02)	(-9.180804e+00 1.876120e+00 -9.133997e+02)	(1.988488e-02 8.423362e-02 2.005863e+00)
0.00459334    	(-9.185241e+00 1.966347e+00 -9.138010e+02)	(-9.205130e+00 1.882049e+00 -9.158073e+02)	(1.988875e-02 8.429774e-02 2.006346e+00)
0.00463004    	(-9.197770e+00 1.965454e+00 -9.150494e+02)	(-9.217663e+00 1.881088e+00 -9.170563e+02)	(1.989287e-02 8.436567e-02 2.006853e+00)
0.00466664    	(-9.220972e+00 1.973398e+00 -9.173428e+02)	(-9.240868e+00 1.888967e+00 -9.193501e+02)	(1.989682e-02 8.443127e-02 2.007342e+00)
0.00470312    	(-9.227571e+00 1.968159e+00 -9.180100e+02)	(-9.247469e+00 1.883669e+00 -9.200176e+02)	(1.989831e-02 8.449020e-02 2.007584e+00)
0.00473952    	(-9.244814e+00 1.973490e+00 -9.197160e+02)	(-9.264712e+00 1.888942e+00 -9.217237e+02)	(1.989870e-02 8.454779e-02 2.007716e+00)
0.00477587    	(-9.272840e+00 1.983076e+00 -9.224868e+02)	(-9.292746e+00 1.898467e+00 -9.244953e+02)	(1.990582e-02 8.460909e-02 2.008517e+00)
0.00481215    	(-9.287181e+00 1.984915e+00 -9.239118e+02)	(-9.307088e+00 1.900249e+00 -9.259205e+02)	(1.990699e-02 8.466642e-02 2.008723e+00)
0.00484843    	(-9.298940e+00 1.985058e+00 -9.250827e+02)	(-9.318846e+00 1.900341e+00 -9.270913e+02)	(1.990566e-02 8.471707e-02 2.008679e+00)
0.00488469    	(-9.321356e+00 1.993144e+00 -9.272965e+02)	(-9.341259e+00 1.908378e+00 -9.293051e+02)	(1.990349e-02 8.476630e-02 2.008549e+00)
0.00492097    	(-9.359843e+00 2.009474e+00 -9.310977e+02)	(-9.379747e+00 1.924658e+00 -9.331064e+02)	(1.990413e-02 8.481663e-02 2.008699e+00)
0.00495729    	(-9.370905e+00 2.007064e+00 -9.322024e+02)	(-9.390810e+00 1.922201e+00 -9.342112e+02)	(1.990451e-02 8.486279e-02 2.008820e+00)
0.00499366    	(-9.388821e+00 2.011221e+00 -9.339777e+02)	(-9.408727e+00 1.926317e+00 -9.359867e+02)	(1.990532e-02 8.490435e-02 2.008983e+00)
0.00503012    	(-9.420087e+00 2.022556e+00 -9.370666e+02)	(-9.439990e+00 1.937613e+00 -9.390755e+02)	(1.990329e-02 8.494357e-02 2.008862e+00)
0.00506666    	(-9.452205e+00 2.037725e+00 -9.402360e+02)	(-9.472109e+00 1.952742e+00 -9.422450e+02)	(1.990391e-02 8.498275e-02 2.009002e+00)
0.00510331    	(-9.459583e+00 2.029892e+00 -9.409856e+02)	(-9.479487e+00 1.944875e+00 -9.429947e+02)	(1.990376e-02 8.501675e-02 2.009064e+00)
0.00514009    	(-9.477852e+00 2.039358e+00 -9.427889e+02)	(-9.497754e+00 1.954313e+00 -9.447979e+02)	(1.990193e-02 8.504539e-02 2.008957e+00)
0.00517702    	(-9.510148e+00 2.051258e+00 -9.459811e+02)	(-9.530048e+00 1.966183e+00 -9.479900e+02)	(1.990051e-02 8.507516e-02 2.008890e+00)
0.00521409    	(-9.535515e+00 2.062761e+00 -9.484856e+02)	(-9.555415e+00 1.977659e+00 -9.504945e+02)	(1.989942e-02 8.510256e-02 2.008854e+00)
0.00525132    	(-9.544995e+00 2.058129e+00 -9.494400e+02)	(-9.564891e+00 1.973004e+00 -9.514486e+02)	(1.989560e-02 8.512412e-02 2.008545e+00)
0.00528872    	(-9.577546e+00 2.075804e+00 -9.526481e+02)	(-9.597439e+00 1.990660e+00 -9.546564e+02)	(1.989229e-02 8.514400e-02 2.008286e+00)
0.00532616    	(-9.617435e+00 2.090487e+00 -9.565901e+02)	(-9.637325e+00 2.005325e+00 -9.585982e+02)	(1.988933e-02 8.516208e-02 2.008059e+00)
0.00536346    	(-9.625315e+00 2.088783e+00 -9.573800e+02)	(-9.645199e+00 2.003610e+00 -9.593876e+02)	(1.988450e-02 8.517345e-02 2.007644e+00)
0.00540066    	(-9.669613e+00 2.105020e+00 -9.617560e+02)	(-9.689494e+00 2.019838e+00 -9.637633e+02)	(1.988036e-02 8.518257e-02 2.007298e+00)
0.00543776    	(-9.698764e+00 2.117474e+00 -9.646351e+02)	(-9.718644e+00 2.032288e+00 -9.666424e+02)	(1.987970e-02 8.518655e-02 2.007297e+00)
0.00547475    	(-9.732162e+00 2.129541e+00 -9.679367e+02)	(-9.752034e+00 2.044352e+00 -9.699433e+02)	(1.987188e-02 8.518846e-02 2.006579e+00)
0.00551165    	(-9.744807e+00 2.130236e+00 -9.691974e+02)	(-9.764669e+00 2.045054e+00 -9.712030e+02)	(1.986180e-02 8.518186e-02 2.005635e+00)
0.00554846    	(-9.783552e+00 2.148625e+00 -9.730181e+02)	(-9.803403e+00 2.063453e+00 -9.750227e+02)	(1.985041e-02 8.517294e-02 2.004560e+00)
0.00558519    	(-9.818531e+00 2.163298e+00 -9.764736e+02)	(-9.838370e+00 2.078134e+00 -9.784770e+02)	(1.983852e-02 8.516412e-02 2.003433e+00)
0.00562187    	(-9.833293e+00 2.164225e+00 -9.779430e+02)	(-9.853118e+00 2.079077e+00 -9.799451e+02)	(1.982543e-02 8.514806e-02 2.002184e+00)
0.00565848    	(-9.865759e+00 2.177150e+00 -9.811522e+02)	(-9.885570e+00 2.092024e+00 -9.831530e+02)	(1.981084e-02 8.512697e-02 2.000785e+00)
0.00569502    	(-9.898199e+00 2.191285e+00 -9.843539e+02)	(-9.917995e+00 2.106178e+00 -9.863533e+02)	(1.979666e-02 8.510722e-02 1.999425e+00)
0.0057315     	(-9.931456e+00 2.208180e+00 -9.876311e+02)	(-9.951236e+00 2.123095e+00 -9.896289e+02)	(1.978059e-02 8.508464e-02 1.997876e+00)
0.00576791    	(-9.947343e+00 2.205724e+00 -9.892184e+02)	(-9.967106e+00 2.120671e+00 -9.912145e+02)	(1.976276e-02 8.505317e-02 1.996151e+00)
0.00580427    	(-9.978587e+00 2.219442e+00 -9.923030e+02)	(-9.998333e+00 2.134422e+00 -9.942975e+02)	(1.974571e-02 8.501979e-02 1.994500e+00)
0.00584057    	(-1.002222e+01 2.238234e+00 -9.966047e+02)	(-1.004194e+01 2.153247e+00 -9.985974e+02)	(1.972753e-02 8.498645e-02 1.992738e+00)
0.00587683    	(-1.003693e+01 2.240643e+00 -9.980658e+02)	(-1.005664e+01 2.155691e+00 -1.000057e+03)	(1.971238e-02 8.495227e-02 1.991275e+00)
0.00591305    	(-1.006698e+01 2.250560e+00 -1.001037e+03)	(-1.008667e+01 2.165654e+00 -1.003026e+03)	(1.969048e-02 8.490647e-02 1.989139e+00)
0.00594924    	(-1.009275e+01 2.261637e+00 -1.003581e+03)	(-1.011242e+01 2.176774e+00 -1.005568e+03)	(1.966939e-02 8.486315e-02 1.987082e+00)
0.00598542    	(-1.012305e+01 2.274431e+00 -1.006571e+03)	(-1.014270e+01 2.189613e+00 -1.008556e+03)	(1.964836e-02 8.481741e-02 1.985030e+00)
0.00602156    	(-1.013296e+01 2.274162e+00 -1.007561e+03)	(-1.015259e+01 2.189399e+00 -1.009543e+03)	(1.962558e-02 8.476327e-02 1.982802e+00)
0.00605769    	(-1.016538e+01 2.286731e+00 -1.010762e+03)	(-1.018498e+01 2.202024e+00 -1.012742e+03)	(1.960263e-02 8.470742e-02 1.980555e+00)
0.00609381    	(-1.019488e+01 2.299695e+00 -1.013673e+03)	(-1.021446e+01 2.215040e+00 -1.015651e+03)	(1.958076e-02 8.465452e-02 1.978415e+00)
0.00612993    	(-1.021533e+01 2.305101e+00 -1.015698e+03)	(-1.023489e+01 2.220505e+00 -1.017674e+03)	(1.955786e-02 8.459650e-02 1.976171e+00)
0.00616603    	(-1.024531e+01 2.317196e+00 -1.018657e+03)	(-1.026484e+01 2.232664e+00 -1.020631e+03)	(1.953418e-02 8.453171e-02 1.973848e+00)
0.00620214    	(-1.025562e+01 2.316099e+00 -1.019687e+03)	(-1.027513e+01 2.231628e+00 -1.021659e+03)	(1.951195e-02 8.447091e-02 1.971667e+00)
0.00623824    	(-1.029101e+01 2.332500e+00 -1.023175e+03)	(-1.031050e+01 2.248091e+00 -1.025145e+03)	(1.949042e-02 8.440848e-02 1.969555e+00)
0.00627434    	(-1.030969e+01 2.335625e+00 -1.025027e+03)	(-1.032916e+01 2.251286e+00 -1.026995e+03)	(1.946619e-02 8.433889e-02 1.967173e+00)
0.00631046    	(-1.033678e+01 2.348614e+00 -1.027700e+03)	(-1.035623e+01 2.264344e+00 -1.029665e+03)	(1.944496e-02 8.426977e-02 1.965091e+00)
0.00634658    	(-1.035723e+01 2.350903e+00 -1.029731e+03)	(-1.037666e+01 2.266702e+00 -1.031694e+03)	(1.942101e-02 8.420042e-02 1.962736e+00)
0.00638271    	(-1.038257e+01 2.365824e+00 -1.032222e+03)	(-1.040197e+01 2.281697e+00 -1.034183e+03)	(1.939643e-02 8.412724e-02 1.960316e+00)
0.00641886    	(-1.042578e+01 2.382806e+00 -1.036487e+03)	(-1.044515e+01 2.298760e+00 -1.038445e+03)	(1.937079e-02 8.404657e-02 1.957790e+00)
0.00645502    	(-1.043847e+01 2.386145e+00 -1.037745e+03)	(-1.045782e+01 2.302177e+00 -1.039700e+03)	(1.934912e-02 8.396893e-02 1.955658e+00)
0.00649119    	(-1.048001e+01 2.403106e+00 -1.041842e+03)	(-1.049934e+01 2.319214e+00 -1.043795e+03)	(1.932572e-02 8.389232e-02 1.953353e+00)
0.00652739    	(-1.051385e+01 2.419812e+00 -1.045175e+03)	(-1.053315e+01 2.336002e+00 -1.047126e+03)	(1.930093e-02 8.381083e-02 1.950907e+00)
0.00656361    	(-1.055050e+01 2.436224e+00 -1.048788e+03)	(-1.056977e+01 2.352499e+00 -1.050736e+03)	(1.927527e-02 8.372515e-02 1.948374e+00)
0.00659985    	(-1.056147e+01 2.433186e+00 -1.049888e+03)	(-1.058072e+01 2.349542e+00 -1.051834e+03)	(1.925122e-02 8.364447e-02 1.946001e+00)
0.00663614    	(-1.059844e+01 2.452556e+00 -1.053525e+03)	(-1.061767e+01 2.368995e+00 -1.055469e+03)	(1.922744e-02 8.356138e-02 1.943653e+00)
0.00667245    	(-1.064713e+01 2.470996e+00 -1.058332e+03)	(-1.066633e+01 2.387525e+00 -1.060274e+03)	(1.920742e-02 8.347165e-02 1.941678e+00)
0.00670881    	(-1.065998e+01 2.474058e+00 -1.059607e+03)	(-1.067916e+01 2.390678e+00 -1.061546e+03)	(1.918135e-02 8.338013e-02 1.939100e+00)
0.00674521    	(-1.068021e+01 2.476646e+00 -1.061616e+03)	(-1.069937e+01 2.393345e+00 -1.063552e+03)	(1.915943e-02 8.330100e-02 1.936936e+00)
0.00678166    	(-1.072284e+01 2.502333e+00 -1.065804e+03)	(-1.074197e+01 2.419179e+00 -1.067739e+03)	(1.913266e-02 8.315434e-02 1.934243e+00)
0.00681816    	(-1.076206e+01 2.516232e+00 -1.069678e+03)	(-1.078116e+01 2.433226e+00 -1.071609e+03)	(1.910497e-02 8.300567e-02 1.931459e+00)
0.00685472    	(-1.076398e+01 2.511725e+00 -1.069879e+03)	(-1.078306e+01 2.428860e+00 -1.071808e+03)	(1.907848e-02 8.286570e-02 1.928796e+00)
0.00689135    	(-1.080198e+01 2.526302e+00 -1.073629e+03)	(-1.082103e+01 2.443574e+00 -1.075555e+03)	(1.905264e-02 8.272819e-02 1.926198e+00)
0.00692803    	(-1.084649e+01 2.548922e+00 -1.078010e+03)	(-1.086552e+01 2.466335e+00 -1.079934e+03)	(1.902702e-02 8.258737e-02 1.923621e+00)
0.0069647     	(-1.088404e+01 2.562216e+00 -1.081718e+03)	(-1.090305e+01 2.479769e+00 -1.083638e+03)	(1.900057e-02 8.244766e-02 1.920962e+00)
0.00700133    	(-1.088254e+01 2.548809e+00 -1.081596e+03)	(-1.090152e+01 2.466492e+00 -1.083515e+03)	(1.897594e-02 8.231763e-02 1.918486e+00)
0.00703792    	(-1.094448e+01 2.581406e+00 -1.087689e+03)	(-1.096343e+01 2.499218e+00 -1.089605e+03)	(1.895370e-02 8.218706e-02 1.916245e+00)
0.00707447    	(-1.098053e+01 2.591426e+00 -1.091252e+03)	(-1.099946e+01 2.509372e+00 -1.093166e+03)	(1.893133e-02 8.205406e-02 1.913990e+00)
0.007111      	(-1.100835e+01 2.604054e+00 -1.093993e+03)	(-1.102726e+01 2.522131e+00 -1.095905e+03)	(1.890886e-02 8.192272e-02 1.911725e+00)
0.0071475     	(-1.102059e+01 2.592970e+00 -1.095232e+03)	(-1.103948e+01 2.511171e+00 -1.097142e+03)	(1.888933e-02 8.179898e-02 1.909753e+00)
0.00718398    	(-1.107736e+01 2.629370e+00 -1.100805e+03)	(-1.109624e+01 2.547698e+00 -1.102713e+03)	(1.887284e-02 8.167219e-02 1.908079e+00)
0.00722044    	(-1.111611e+01 2.637311e+00 -1.104639e+03)	(-1.113496e+01 2.555770e+00 -1.106545e+03)	(1.885521e-02 8.154128e-02 1.906292e+00)
0.00725688    	(-1.112022e+01 2.636874e+00 -1.105051e+03)	(-1.113906e+01 2.555463e+00 -1.106956e+03)	(1.883672e-02 8.141176e-02 1.904420e+00)
0.00729329    	(-1.114474e+01 2.635987e+00 -1.107491e+03)	(-1.116356e+01 2.554699e+00 -1.109394e+03)	(1.882323e-02 8.128773e-02 1.903044e+00)
0.00732968    	(-1.120189e+01 2.670832e+00 -1.113103e+03)	(-1.122071e+01 2.589672e+00 -1.115005e+03)	(1.881325e-02 8.115946e-02 1.902011e+00)
0.00736602    	(-1.122654e+01 2.673883e+00 -1.115547e+03)	(-1.124534e+01 2.592858e+00 -1.117447e+03)	(1.880278e-02 8.102577e-02 1.900930e+00)
0.00740233    	(-1.123768e+01 2.674492e+00 -1.116654e+03)	(-1.125647e+01 2.593600e+00 -1.118554e+03)	(1.879138e-02 8.089160e-02 1.899756e+00)
0.00743861    	(-1.125677e+01 2.673830e+00 -1.118558e+03)	(-1.127556e+01 2.593068e+00 -1.120457e+03)	(1.878652e-02 8.076173e-02 1.899228e+00)
0.00747487    	(-1.130877e+01 2.701145e+00 -1.123671e+03)	(-1.132755e+01 2.620516e+00 -1.125570e+03)	(1.878407e-02 8.062871e-02 1.898939e+00)
0.00751111    	(-1.133399e+01 2.701517e+00 -1.126178e+03)	(-1.135277e+01 2.621029e+00 -1.128076e+03)	(1.878076e-02 8.048806e-02 1.898560e+00)
0.00754734    	(-1.136037e+01 2.710008e+00 -1.128783e+03)	(-1.137914e+01 2.629664e+00 -1.130681e+03)	(1.877607e-02 8.034389e-02 1.898045e+00)
0.00758354    	(-1.140085e+01 2.720279e+00 -1.132788e+03)	(-1.141963e+01 2.640075e+00 -1.134686e+03)	(1.877699e-02 8.020378e-02 1.898086e+00)
0.00761974    	(-1.144983e+01 2.747011e+00 -1.137601e+03)	(-1.146861e+01 2.666952e+00 -1.139500e+03)	(1.877909e-02 8.005884e-02 1.898240e+00)
0.00765592    	(-1.147495e+01 2.748432e+00 -1.140096e+03)	(-1.149373e+01 2.668528e+00 -1.141994e+03)	(1.877894e-02 7.990451e-02 1.898170e+00)
0.00769209    	(-1.150534e+01 2.760517e+00 -1.143092e+03)	(-1.152412e+01 2.680773e+00 -1.144989e+03)	(1.877616e-02 7.974458e-02 1.897838e+00)