# Force       
# CofR        : (5.000000e+00 5.000000e-03 0.000000e+00)
#
# Time        	(total_x total_y total_z)	(pressure_x pressure_y pressure_z)	(viscous_x viscous_y viscous_z)
1.20005e-05   	(9.520699e+04 1.576444e+05 -3.284509e-13)	(9.520611e+04 1.576445e+05 -3.284509e-13)	(8.796615e-01 -1.218400e-01 2.763709e-20)
2.64017e-05   	(3.679795e+03 5.212655e+03 -1.547556e-14)	(3.678931e+03 5.212797e+03 -1.547557e-14)	(8.641562e-01 -1.420429e-01 1.151580e-20)
4.36833e-05   	(6.488179e+02 7.627344e+02 -2.717786e-15)	(6.479506e+02 7.628881e+02 -2.717790e-15)	(8.672801e-01 -1.537523e-01 3.737392e-21)
6.44211e-05   	(2.206123e+02 3.671077e+02 -1.197486e-15)	(2.197385e+02 3.672675e+02 -1.197487e-15)	(8.737646e-01 -1.598280e-01 9.539409e-22)
8.9054e-05    	(1.186818e+02 3.027478e+02 -9.241211e-16)	(1.178000e+02 3.029118e+02 -9.241204e-16)	(8.817214e-01 -1.640474e-01 -7.293639e-22)
0.000117592   	(9.724293e+01 2.988489e+02 -9.145259e-16)	(9.635186e+01 2.990163e+02 -9.145239e-16)	(8.910710e-01 -1.674760e-01 -1.964888e-21)
0.000150042   	(1.068302e+02 3.100161e+02 -1.047734e-15)	(1.059280e+02 3.101866e+02 -1.047731e-15)	(9.021697e-01 -1.704898e-01 -3.452825e-21)
0.000186404   	(1.211012e+02 3.237209e+02 -1.194145e-15)	(1.201856e+02 3.238943e+02 -1.194139e-15)	(9.155979e-01 -1.733398e-01 -5.322179e-21)
0.000225562   	(1.321914e+02 3.380428e+02 -1.314867e-15)	(1.312608e+02 3.382190e+02 -1.314859e-15)	(9.306319e-01 -1.761570e-01 -8.039102e-21)
0.000264659   	(1.403307e+02 3.504887e+02 -1.408093e-15)	(1.393849e+02 3.506677e+02 -1.408082e-15)	(9.458213e-01 -1.789529e-01 -1.147761e-20)
0.000303679   	(1.477875e+02 3.652965e+02 -1.505993e-15)	(1.468264e+02 3.654784e+02 -1.505977e-15)	(9.611083e-01 -1.819085e-01 -1.516378e-20)
0.000342607   	(1.603245e+02 3.972874e+02 -1.689508e-15)	(1.593484e+02 3.974725e+02 -1.689489e-15)	(9.761542e-01 -1.850837e-01 -1.861489e-20)
0.000381445   	(1.712903e+02 4.266375e+02 -1.878908e-15)	(1.702994e+02 4.268261e+02 -1.878886e-15)	(9.909091e-01 -1.886186e-01 -2.169718e-20)
0.000419051   	(1.595200e+02 3.927905e+02 -1.765540e-15)	(1.585151e+02 3.929832e+02 -1.765515e-15)	(1.004905e+00 -1.926369e-01 -2.454194e-20)
0.000455105   	(1.500663e+02 3.682628e+02 -1.707106e-15)	(1.490484e+02 3.684600e+02 -1.707079e-15)	(1.017984e+00 -1.971643e-01 -2.710678e-20)
0.00048996    	(1.445606e+02 3.550749e+02 -1.708214e-15)	(1.435302e+02 3.552771e+02 -1.708185e-15)	(1.030367e+00 -2.021882e-01 -2.923209e-20)
0.000523864   	(1.398996e+02 3.440555e+02 -1.716775e-15)	(1.388573e+02 3.442631e+02 -1.716744e-15)	(1.042242e+00 -2.076404e-01 -3.067520e-20)
0.00055699    	(1.356305e+02 3.348050e+02 -1.736935e-15)	(1.345767e+02 3.350184e+02 -1.736903e-15)	(1.053742e+00 -2.134227e-01 -3.141895e-20)
0.000589616   	(1.318326e+02 3.263010e+02 -1.758790e-15)	(1.307676e+02 3.265205e+02 -1.758759e-15)	(1.064984e+00 -2.194471e-01 -3.176350e-20)
0.000621965   	(1.284507e+02 3.180289e+02 -1.771283e-15)	(1.273747e+02 3.182545e+02 -1.771251e-15)	(1.076010e+00 -2.256391e-01 -3.190578e-20)
0.000654231   	(1.258030e+02 3.104562e+02 -1.771100e-15)	(1.247162e+02 3.106881e+02 -1.771068e-15)	(1.086821e+00 -2.319312e-01 -3.203946e-20)
0.000686517   	(1.236740e+02 3.039205e+02 -1.764828e-15)	(1.225766e+02 3.041588e+02 -1.764796e-15)	(1.097386e+00 -2.382708e-01 -3.225478e-20)
0.000718699   	(1.219082e+02 2.984139e+02 -1.754392e-15)	(1.208005e+02 2.986584e+02 -1.754360e-15)	(1.107674e+00 -2.445895e-01 -3.252298e-20)
0.000750267   	(1.209205e+02 2.943589e+02 -1.734006e-15)	(1.198029e+02 2.946096e+02 -1.733974e-15)	(1.117602e+00 -2.507854e-01 -3.267594e-20)
0.00078139    	(1.202535e+02 2.915890e+02 -1.711893e-15)	(1.191263e+02 2.918459e+02 -1.711860e-15)	(1.127262e+00 -2.568771e-01 -3.261680e-20)
0.000812098   	(1.184635e+02 2.862961e+02 -1.680200e-15)	(1.173268e+02 2.865589e+02 -1.680168e-15)	(1.136704e+00 -2.628683e-01 -3.218931e-20)
0.000842515   	(1.167089e+02 2.815696e+02 -1.649268e-15)	(1.155630e+02 2.818384e+02 -1.649237e-15)	(1.145942e+00 -2.687775e-01 -3.138030e-20)
0.000872764   	(1.137631e+02 2.732963e+02 -1.606320e-15)	(1.126081e+02 2.735709e+02 -1.606290e-15)	(1.155005e+00 -2.746206e-01 -3.007144e-20)
0.000902958   	(1.114938e+02 2.679378e+02 -1.583814e-15)	(1.103299e+02 2.682182e+02 -1.583786e-15)	(1.163904e+00 -2.804032e-01 -2.837873e-20)
0.000933171   	(1.098293e+02 2.644044e+02 -1.573416e-15)	(1.086565e+02 2.646906e+02 -1.573390e-15)	(1.172755e+00 -2.861432e-01 -2.649634e-20)
0.000963503   	(1.082924e+02 2.606343e+02 -1.562275e-15)	(1.071108e+02 2.609262e+02 -1.562250e-15)	(1.181577e+00 -2.919270e-01 -2.447436e-20)
0.00099407    	(1.066816e+02 2.566088e+02 -1.553766e-15)	(1.054912e+02 2.569066e+02 -1.553743e-15)	(1.190428e+00 -2.978219e-01 -2.223090e-20)
0.00102493    	(1.051133e+02 2.526851e+02 -1.550965e-15)	(1.039140e+02 2.529890e+02 -1.550945e-15)	(1.199354e+00 -3.038576e-01 -2.012228e-20)
0.00105614    	(1.034422e+02 2.487536e+02 -1.555347e-15)	(1.022338e+02 2.490637e+02 -1.555328e-15)	(1.208354e+00 -3.100496e-01 -1.906248e-20)
0.00108768    	(1.016198e+02 2.447991e+02 -1.565566e-15)	(1.004024e+02 2.451155e+02 -1.565546e-15)	(1.217452e+00 -3.164225e-01 -1.988329e-20)
0.00111897    	(9.947057e+01 2.404842e+02 -1.579736e-15)	(9.824412e+01 2.408071e+02 -1.579714e-15)	(1.226457e+00 -3.228956e-01 -2.249017e-20)
0.00115009    	(9.690180e+01 2.354608e+02 -1.595952e-15)	(9.566637e+01 2.357903e+02 -1.595926e-15)	(1.235428e+00 -3.295137e-01 -2.623740e-20)
0.00118112    	(9.344781e+01 2.291152e+02 -1.619562e-15)	(9.220346e+01 2.294516e+02 -1.619531e-15)	(1.244347e+00 -3.363217e-01 -3.086902e-20)
0.00121214    	(8.860219e+01 2.206298e+02 -1.655390e-15)	(8.734893e+01 2.209732e+02 -1.655353e-15)	(1.253262e+00 -3.434397e-01 -3.685866e-20)
0.00124321    	(8.157265e+01 2.086012e+02 -1.703656e-15)	(8.031037e+01 2.089523e+02 -1.703612e-15)	(1.262278e+00 -3.511361e-01 -4.465677e-20)
0.00127438    	(7.171772e+01 1.916594e+02 -1.741404e-15)	(7.044623e+01 1.920192e+02 -1.741350e-15)	(1.271486e+00 -3.597411e-01 -5.357530e-20)
0.00130576    	(6.022082e+01 1.710528e+02 -1.707738e-15)	(5.893985e+01 1.714217e+02 -1.707677e-15)	(1.280963e+00 -3.689554e-01 -6.098074e-20)
0.00133742    	(4.630921e+01 1.458642e+02 -1.602072e-15)	(4.501860e+01 1.462424e+02 -1.602008e-15)	(1.290607e+00 -3.781999e-01 -6.395690e-20)
0.00136941    	(2.388907e+01 1.076285e+02 -1.472028e-15)	(2.258867e+01 1.080157e+02 -1.471965e-15)	(1.300396e+00 -3.871321e-01 -6.323853e-20)
0.00140179    	(-1.659061e+01 3.905836e+01 -1.249933e-15)	(-1.790054e+01 3.945380e+01 -1.249876e-15)	(1.309938e+00 -3.954401e-01 -5.739168e-20)
0.00143452    	(-9.325381e+01 -9.230206e+01 -8.796320e-16)	(-9.457184e+01 -9.190009e+01 -8.795878e-16)	(1.318032e+00 -4.019704e-01 -4.425212e-20)
0.00146757    	(-1.881192e+02 -2.588961e+02 -4.429837e-16)	(-1.894425e+02 -2.584908e+02 -4.429586e-16)	(1.323324e+00 -4.053212e-01 -2.515327e-20)
0.00150076    	(-1.864539e+02 -2.640566e+02 -5.164281e-16)	(-1.877808e+02 -2.636505e+02 -5.164220e-16)	(1.326889e+00 -4.061418e-01 -6.139812e-21)
0.00153403    	(-7.492003e+01 -7.187597e+01 -1.043173e-15)	(-7.625081e+01 -7.146932e+01 -1.043177e-15)	(1.330774e+00 -4.066486e-01 3.243356e-21)
0.00156737    	(1.506891e+01 9.537116e+01 -1.394049e-15)	(1.373326e+01 9.577940e+01 -1.394056e-15)	(1.335649e+00 -4.082390e-01 6.766736e-21)
0.00160081    	(5.597298e+01 1.737874e+02 -1.488872e-15)	(5.463269e+01 1.741979e+02 -1.488880e-15)	(1.340289e+00 -4.104831e-01 7.765111e-21)
0.00163436    	(6.818957e+01 1.963370e+02 -1.496465e-15)	(6.684467e+01 1.967501e+02 -1.496472e-15)	(1.344895e+00 -4.130251e-01 7.477533e-21)
0.00166801    	(7.247943e+01 2.008942e+02 -1.453261e-15)	(7.113015e+01 2.013098e+02 -1.453267e-15)	(1.349286e+00 -4.156563e-01 6.122248e-21)
0.00170181    	(7.390431e+01 2.016890e+02 -1.431326e-15)	(7.255078e+01 2.021072e+02 -1.431329e-15)	(1.353534e+00 -4.182474e-01 3.537388e-21)
0.00173577    	(7.634330e+01 2.042147e+02 -1.407506e-15)	(7.498574e+01 2.046355e+02 -1.407506e-15)	(1.357564e+00 -4.208077e-01 1.117274e-22)
0.00176991    	(7.714575e+01 2.050967e+02 -1.398522e-15)	(7.578439e+01 2.055200e+02 -1.398518e-15)	(1.361361e+00 -4.233041e-01 -4.105763e-21)
0.00180428    	(7.777203e+01 2.061557e+02 -1.395284e-15)	(7.640703e+01 2.065814e+02 -1.395275e-15)	(1.364992e+00 -4.257377e-01 -8.707419e-21)
0.00183866    	(7.835535e+01 2.076306e+02 -1.398090e-15)	(7.698703e+01 2.080586e+02 -1.398077e-15)	(1.368318e+00 -4.280677e-01 -1.328487e-20)
0.00187301    	(7.845663e+01 2.090275e+02 -1.409321e-15)	(7.708528e+01 2.094578e+02 -1.409304e-15)	(1.371350e+00 -4.302462e-01 -1.732955e-20)
0.00190743    	(7.851547e+01 2.112551e+02 -1.431111e-15)	(7.714136e+01 2.116874e+02 -1.431091e-15)	(1.374107e+00 -4.323282e-01 -2.054715e-20)
0.00194182    	(7.812898e+01 2.139891e+02 -1.466200e-15)	(7.675242e+01 2.144234e+02 -1.466178e-15)	(1.376561e+00 -4.342383e-01 -2.261126e-20)
0.00197639    	(7.767000e+01 2.179685e+02 -1.515764e-15)	(7.629131e+01 2.184045e+02 -1.515740e-15)	(1.378686e+00 -4.359901e-01 -2.331702e-20)
0.00201091    	(7.729971e+01 2.219261e+02 -1.564626e-15)	(7.591917e+01 2.223637e+02 -1.564603e-15)	(1.380542e+00 -4.376170e-01 -2.279230e-20)
0.00204563    	(7.700502e+01 2.255048e+02 -1.607579e-15)	(7.562291e+01 2.259439e+02 -1.607558e-15)	(1.382111e+00 -4.390789e-01 -2.092694e-20)
0.00208037    	(7.771196e+01 2.278349e+02 -1.622500e-15)	(7.632848e+01 2.282754e+02 -1.622482e-15)	(1.383490e+00 -4.404786e-01 -1.775775e-20)
0.00211522    	(7.858750e+01 2.275186e+02 -1.607553e-15)	(7.720269e+01 2.279604e+02 -1.607540e-15)	(1.384813e+00 -4.418084e-01 -1.372001e-20)
0.00215008    	(7.925417e+01 2.260206e+02 -1.584541e-15)	(7.786810e+01 2.264638e+02 -1.584532e-15)	(1.386077e+00 -4.431111e-01 -9.074166e-21)
0.00218496    	(7.942695e+01 2.246748e+02 -1.570168e-15)	(7.803972e+01 2.251192e+02 -1.570164e-15)	(1.387231e+00 -4.443945e-01 -4.149334e-21)
0.00221988    	(7.963266e+01 2.244158e+02 -1.567157e-15)	(7.824437e+01 2.248614e+02 -1.567157e-15)	(1.388286e+00 -4.455986e-01 4.226871e-22)
0.00225484    	(7.966646e+01 2.249617e+02 -1.576105e-15)	(7.827726e+01 2.254085e+02 -1.576109e-15)	(1.389199e+00 -4.467743e-01 4.511963e-21)
0.00228985    	(7.952189e+01 2.263005e+02 -1.595524e-15)	(7.813187e+01 2.267483e+02 -1.595531e-15)	(1.390021e+00 -4.478744e-01 7.681579e-21)
0.00232492    	(7.938623e+01 2.293399e+02 -1.634302e-15)	(7.799546e+01 2.297888e+02 -1.634312e-15)	(1.390767e+00 -4.489068e-01 9.687157e-21)
0.00236005    	(7.888594e+01 2.336010e+02 -1.691690e-15)	(7.749465e+01 2.340509e+02 -1.691701e-15)	(1.391284e+00 -4.498352e-01 1.038806e-20)
0.00239523    	(7.828696e+01 2.405315e+02 -1.776954e-15)	(7.689537e+01 2.409821e+02 -1.776964e-15)	(1.391596e+00 -4.505808e-01 9.615568e-21)
0.00243048    	(7.807266e+01 2.494976e+02 -1.879753e-15)	(7.668098e+01 2.499488e+02 -1.879761e-15)	(1.391685e+00 -4.511799e-01 7.255606e-21)
0.00246579    	(7.822693e+01 2.589380e+02 -1.982435e-15)	(7.683539e+01 2.593896e+02 -1.982438e-15)	(1.391540e+00 -4.515973e-01 3.362063e-21)
0.00250117    	(7.893030e+01 2.682780e+02 -2.074516e-15)	(7.753915e+01 2.687297e+02 -2.074515e-15)	(1.391147e+00 -4.517707e-01 -1.584995e-21)
0.00253661    	(7.945235e+01 2.833293e+02 -2.234532e-15)	(7.806192e+01 2.837810e+02 -2.234525e-15)	(1.390433e+00 -4.517215e-01 -7.560017e-21)
0.00257211    	(7.941750e+01 3.178196e+02 -2.609889e-15)	(7.802857e+01 3.182707e+02 -2.609875e-15)	(1.388928e+00 -4.510661e-01 -1.394679e-20)
0.00260766    	(7.980335e+01 3.932838e+02 -3.431059e-15)	(7.841754e+01 3.937330e+02 -3.431039e-15)	(1.385805e+00 -4.492579e-01 -1.998970e-20)
0.00264329    	(8.036569e+01 4.687376e+02 -4.262796e-15)	(7.898478e+01 4.691838e+02 -4.262771e-15)	(1.380915e+00 -4.461766e-01 -2.556916e-20)
0.002679      	(8.034917e+01 4.053954e+02 -3.572676e-15)	(7.897131e+01 4.058393e+02 -3.572645e-15)	(1.377857e+00 -4.438998e-01 -3.105084e-20)
0.00271479    	(8.016706e+01 2.908274e+02 -2.295597e-15)	(7.878958e+01 2.912707e+02 -2.295561e-15)	(1.377480e+00 -4.432716e-01 -3.592475e-20)
0.00275064    	(8.081481e+01 2.492796e+02 -1.793026e-15)	(7.943709e+01 2.497228e+02 -1.792987e-15)	(1.377717e+00 -4.431931e-01 -3.873952e-20)
0.0027865     	(8.110160e+01 2.472325e+02 -1.751325e-15)	(7.972377e+01 2.476757e+02 -1.751286e-15)	(1.377833e+00 -4.431625e-01 -3.944389e-20)
0.00282237    	(8.110137e+01 2.456294e+02 -1.723308e-15)	(7.972349e+01 2.460726e+02 -1.723270e-15)	(1.377876e+00 -4.432119e-01 -3.840386e-20)
0.00285826    	(8.105477e+01 2.460074e+02 -1.719916e-15)	(7.967685e+01 2.464507e+02 -1.719880e-15)	(1.377917e+00 -4.433055e-01 -3.550863e-20)
0.00289414    	(8.108175e+01 2.462181e+02 -1.715082e-15)	(7.970375e+01 2.466615e+02 -1.715051e-15)	(1.378000e+00 -4.434214e-01 -3.106951e-20)
0.00293003    	(8.115790e+01 2.466874e+02 -1.714911e-15)	(7.978002e+01 2.471309e+02 -1.714886e-15)	(1.377877e+00 -4.435008e-01 -2.566562e-20)
0.0029659     	(8.125565e+01 2.470531e+02 -1.711497e-15)	(7.987787e+01 2.474967e+02 -1.711477e-15)	(1.377783e+00 -4.436304e-01 -1.938965e-20)
0.00300177    	(8.129556e+01 2.472144e+02 -1.710223e-15)	(7.991783e+01 2.476581e+02 -1.710210e-15)	(1.377728e+00 -4.437516e-01 -1.289864e-20)
0.00303759    	(8.144237e+01 2.475715e+02 -1.710894e-15)	(8.006478e+01 2.480154e+02 -1.710888e-15)	(1.377591e+00 -4.438872e-01 -6.429912e-21)
0.00307333    	(8.149196e+01 2.478542e+02 -1.711730e-15)	(8.011456e+01 2.482982e+02 -1.711730e-15)	(1.377404e+00 -4.440286e-01 -7.448046e-22)
0.003109      	(8.152295e+01 2.480241e+02 -1.711169e-15)	(8.014574e+01 2.484683e+02 -1.711173e-15)	(1.377204e+00 -4.441506e-01 3.591261e-21)
0.00314464    	(8.158341e+01 2.483108e+02 -1.711281e-15)	(8.020646e+01 2.487551e+02 -1.711287e-15)	(1.376941e+00 -4.442586e-01 6.213360e-21)
0.00318023    	(8.174194e+01 2.487362e+02 -1.713888e-15)	(8.036530e+01 2.491806e+02 -1.713895e-15)	(1.376642e+00 -4.443917e-01 7.224556e-21)
0.0032158     	(8.178091e+01 2.490507e+02 -1.714480e-15)	(8.040454e+01 2.494952e+02 -1.714486e-15)	(1.376377e+00 -4.445197e-01 6.127222e-21)
0.00325137    	(8.173768e+01 2.490689e+02 -1.711605e-15)	(8.036154e+01 2.495135e+02 -1.711607e-15)	(1.376137e+00 -4.446146e-01 2.807541e-21)
0.00328694    	(8.187979e+01 2.494077e+02 -1.709813e-15)	(8.050386e+01 2.498525e+02 -1.709810e-15)	(1.375930e+00 -4.447659e-01 -3.055145e-21)
0.00332246    	(8.205005e+01 2.499998e+02 -1.708788e-15)	(8.067436e+01 2.504446e+02 -1.708778e-15)	(1.375688e+00 -4.448334e-01 -1.060429e-20)
0.00335794    	(8.199038e+01 2.502471e+02 -1.704934e-15)	(8.061491e+01 2.506919e+02 -1.704914e-15)	(1.375468e+00 -4.448569e-01 -1.974447e-20)
0.00339339    	(8.209347e+01 2.506945e+02 -1.701045e-15)	(8.071817e+01 2.511394e+02 -1.701015e-15)	(1.375299e+00 -4.448638e-01 -3.051531e-20)
0.00342883    	(8.237309e+01 2.512692e+02 -1.694689e-15)	(8.099793e+01 2.517141e+02 -1.694646e-15)	(1.375164e+00 -4.448825e-01 -4.240821e-20)
0.00346428    	(8.243072e+01 2.514982e+02 -1.685872e-15)	(8.105564e+01 2.519431e+02 -1.685817e-15)	(1.375081e+00 -4.448930e-01 -5.512383e-20)
0.00349974    	(8.268068e+01 2.520062e+02 -1.677742e-15)	(8.130564e+01 2.524510e+02 -1.677674e-15)	(1.375031e+00 -4.448615e-01 -6.834430e-20)
0.00353521    	(8.292190e+01 2.525356e+02 -1.669257e-15)	(8.154686e+01 2.529804e+02 -1.669176e-15)	(1.375048e+00 -4.448540e-01 -8.089250e-20)
0.00357066    	(8.310670e+01 2.528698e+02 -1.659235e-15)	(8.173163e+01 2.533146e+02 -1.659143e-15)	(1.375071e+00 -4.448308e-01 -9.201134e-20)
0.0036061     	(8.318486e+01 2.531513e+02 -1.650887e-15)	(8.180976e+01 2.535961e+02 -1.650786e-15)	(1.375098e+00 -4.447981e-01 -1.011109e-19)
0.00364151    	(8.345312e+01 2.537064e+02 -1.642612e-15)	(8.207795e+01 2.541511e+02 -1.642505e-15)	(1.375171e+00 -4.447425e-01 -1.072037e-19)
0.0036769     	(8.351116e+01 2.539082e+02 -1.635193e-15)	(8.213586e+01 2.543529e+02 -1.635083e-15)	(1.375293e+00 -4.447291e-01 -1.096074e-19)
0.00371225    	(8.360538e+01 2.542214e+02 -1.629120e-15)	(8.222996e+01 2.546661e+02 -1.629011e-15)	(1.375417e+00 -4.446598e-01 -1.089605e-19)
0.00374756    	(8.365841e+01 2.544508e+02 -1.623443e-15)	(8.228282e+01 2.548953e+02 -1.623337e-15)	(1.375589e+00 -4.445723e-01 -1.059737e-19)
0.00378283    	(8.374618e+01 2.548244e+02 -1.618483e-15)	(8.237038e+01 2.552689e+02 -1.618382e-15)	(1.375800e+00 -4.444572e-01 -1.011304e-19)
0.00381806    	(8.378356e+01 2.552555e+02 -1.616801e-15)	(8.240753e+01 2.556998e+02 -1.616706e-15)	(1.376029e+00 -4.443077e-01 -9.535094e-20)
0.00385328    	(8.384924e+01 2.556015e+02 -1.614879e-15)	(8.247297e+01 2.560457e+02 -1.614790e-15)	(1.376273e+00 -4.441416e-01 -8.945626e-20)
0.00388848    	(8.387863e+01 2.558674e+02 -1.613143e-15)	(8.250212e+01 2.563113e+02 -1.613059e-15)	(1.376513e+00 -4.439450e-01 -8.384201e-20)
0.0039237     	(8.400203e+01 2.561871e+02 -1.611975e-15)	(8.262523e+01 2.566308e+02 -1.611895e-15)	(1.376800e+00 -4.437350e-01 -7.949543e-20)
0.00395895    	(8.399983e+01 2.563892e+02 -1.613091e-15)	(8.262269e+01 2.568327e+02 -1.613014e-15)	(1.377141e+00 -4.435130e-01 -7.672246e-20)
0.00399423    	(8.404098e+01 2.565295e+02 -1.614124e-15)	(8.266347e+01 2.569727e+02 -1.614049e-15)	(1.377515e+00 -4.432590e-01 -7.553852e-20)
0.00402955    	(8.385498e+01 2.564771e+02 -1.617747e-15)	(8.247704e+01 2.569201e+02 -1.617672e-15)	(1.377947e+00 -4.429998e-01 -7.583099e-20)
0.00406494    	(8.382400e+01 2.565604e+02 -1.621235e-15)	(8.244564e+01 2.570031e+02 -1.621158e-15)	(1.378362e+00 -4.427040e-01 -7.729103e-20)
0.00410034    	(8.383018e+01 2.568072e+02 -1.628831e-15)	(8.245142e+01 2.572496e+02 -1.628752e-15)	(1.378766e+00 -4.423786e-01 -7.913047e-20)
0.00413577    	(8.369411e+01 2.568282e+02 -1.636481e-15)	(8.231492e+01 2.572703e+02 -1.636400e-15)	(1.379184e+00 -4.420949e-01 -8.104825e-20)
0.00417119    	(8.364370e+01 2.570017e+02 -1.644790e-15)	(8.226409e+01 2.574434e+02 -1.644709e-15)	(1.379608e+00 -4.417111e-01 -8.162465e-20)
0.00420646    	(8.365932e+01 2.572865e+02 -1.654143e-15)	(8.227932e+01 2.577278e+02 -1.654062e-15)	(1.380000e+00 -4.413020e-01 -8.127135e-20)
0.00424162    	(8.365849e+01 2.576144e+02 -1.665205e-15)	(8.227811e+01 2.580553e+02 -1.665125e-15)	(1.380384e+00 -4.408658e-01 -7.960544e-20)
0.00427667    	(8.355718e+01 2.577652e+02 -1.675345e-15)	(8.217632e+01 2.582057e+02 -1.675268e-15)	(1.380863e+00 -4.404624e-01 -7.680464e-20)
0.00431162    	(8.361328e+01 2.581137e+02 -1.684670e-15)	(8.223198e+01 2.585538e+02 -1.684596e-15)	(1.381302e+00 -4.400530e-01 -7.324965e-20)
0.00434646    	(8.367138e+01 2.583803e+02 -1.692369e-15)	(8.228967e+01 2.588200e+02 -1.692300e-15)	(1.381704e+00 -4.396696e-01 -6.924517e-20)
0.00438122    	(8.380129e+01 2.587971e+02 -1.702078e-15)	(8.241923e+01 2.592363e+02 -1.702013e-15)	(1.382061e+00 -4.392132e-01 -6.531730e-20)
0.00441589    	(8.377794e+01 2.589286e+02 -1.708310e-15)	(8.239548e+01 2.593674e+02 -1.708249e-15)	(1.382464e+00 -4.387623e-01 -6.140006e-20)
0.00445048    	(8.386120e+01 2.592064e+02 -1.714719e-15)	(8.247837e+01 2.596447e+02 -1.714661e-15)	(1.382835e+00 -4.383060e-01 -5.820940e-20)
0.00448503    	(8.405604e+01 2.595968e+02 -1.720043e-15)	(8.267290e+01 2.600346e+02 -1.719987e-15)	(1.383137e+00 -4.378385e-01 -5.619260e-20)
0.00451955    	(8.408080e+01 2.598291e+02 -1.724975e-15)	(8.269737e+01 2.602665e+02 -1.724919e-15)	(1.383433e+00 -4.374210e-01 -5.569331e-20)
0.00455405    	(8.404139e+01 2.599113e+02 -1.727312e-15)	(8.265767e+01 2.603482e+02 -1.727257e-15)	(1.383713e+00 -4.369377e-01 -5.536277e-20)
0.00458859    	(8.429887e+01 2.604452e+02 -1.729678e-15)	(8.291491e+01 2.608817e+02 -1.729622e-15)	(1.383967e+00 -4.364818e-01 -5.543561e-20)
0.00462316    	(8.444511e+01 2.608247e+02 -1.731275e-15)	(8.306094e+01 2.612607e+02 -1.731218e-15)	(1.384168e+00 -4.360262e-01 -5.638691e-20)
0.00465777    	(8.443071e+01 2.610718e+02 -1.731195e-15)	(8.304636e+01 2.615073e+02 -1.731137e-15)	(1.384349e+00 -4.355631e-01 -5.818362e-20)
0.00469246    	(8.453582e+01 2.614659e+02 -1.730647e-15)	(8.315135e+01 2.619010e+02 -1.730586e-15)	(1.384466e+00 -4.350710e-01 -6.079739e-20)
0.00472722    	(8.464983e+01 2.618910e+02 -1.730696e-15)	(8.326526e+01 2.623256e+02 -1.730632e-15)	(1.384565e+00 -4.345997e-01 -6.393666e-20)
0.00476205    	(8.478338e+01 2.622622e+02 -1.726507e-15)	(8.339871e+01 2.626964e+02 -1.726439e-15)	(1.384675e+00 -4.341351e-01 -6.771559e-20)
0.00479697    	(8.463780e+01 2.622971e+02 -1.723340e-15)	(8.325302e+01 2.627308e+02 -1.723268e-15)	(1.384771e+00 -4.336657e-01 -7.192460e-20)
0.0048319     	(8.486649e+01 2.628238e+02 -1.720502e-15)	(8.348169e+01 2.632570e+02 -1.720426e-15)	(1.384798e+00 -4.331830e-01 -7.626556e-20)
0.00486668    	(8.500335e+01 2.632487e+02 -1.717191e-15)	(8.361857e+01 2.636814e+02 -1.717110e-15)	(1.384788e+00 -4.326827e-01 -8.051546e-20)
0.00490134    	(8.503053e+01 2.634588e+02 -1.710622e-15)	(8.364572e+01 2.638910e+02 -1.710538e-15)	(1.384808e+00 -4.322000e-01 -8.433854e-20)
0.00493588    	(8.498158e+01 2.636296e+02 -1.708268e-15)	(8.359672e+01 2.640613e+02 -1.708179e-15)	(1.384860e+00 -4.317500e-01 -8.827245e-20)
0.00497033    	(8.521077e+01 2.640514e+02 -1.704918e-15)	(8.382589e+01 2.644827e+02 -1.704827e-15)	(1.384882e+00 -4.312556e-01 -9.101635e-20)
0.00500468    	(8.524431e+01 2.643131e+02 -1.703142e-15)	(8.385945e+01 2.647438e+02 -1.703049e-15)	(1.384854e+00 -4.307545e-01 -9.273466e-20)
0.00503894    	(8.537190e+01 2.646349e+02 -1.700539e-15)	(8.398713e+01 2.650651e+02 -1.700445e-15)	(1.384771e+00 -4.302230e-01 -9.353435e-20)
0.00507311    	(8.536857e+01 2.649100e+02 -1.702350e-15)	(8.398394e+01 2.653397e+02 -1.702256e-15)	(1.384630e+00 -4.296583e-01 -9.330984e-20)
0.00510721    	(8.548284e+01 2.653434e+02 -1.706833e-15)	(8.409836e+01 2.657725e+02 -1.706741e-15)	(1.384480e+00 -4.291134e-01 -9.209572e-20)
0.00514124    	(8.556470e+01 2.656701e+02 -1.711298e-15)	(8.418038e+01 2.660987e+02 -1.711208e-15)	(1.384319e+00 -4.285615e-01 -8.998627e-20)
0.00517518    	(8.565601e+01 2.660089e+02 -1.714465e-15)	(8.427189e+01 2.664369e+02 -1.714378e-15)	(1.384114e+00 -4.279816e-01 -8.703331e-20)
0.00520905    	(8.586134e+01 2.664932e+02 -1.721436e-15)	(8.447746e+01 2.669206e+02 -1.721352e-15)	(1.383875e+00 -4.273993e-01 -8.367897e-20)
0.00524284    	(8.593041e+01 2.668651e+02 -1.730586e-15)	(8.454676e+01 2.672919e+02 -1.730506e-15)	(1.383649e+00 -4.268305e-01 -7.994176e-20)
0.00527658    	(8.596819e+01 2.670909e+02 -1.739347e-15)	(8.458479e+01 2.675172e+02 -1.739271e-15)	(1.383401e+00 -4.262501e-01 -7.593542e-20)
0.00531026    	(8.610850e+01 2.674987e+02 -1.748057e-15)	(8.472525e+01 2.679245e+02 -1.747985e-15)	(1.383242e+00 -4.257402e-01 -7.222437e-20)
0.00534392    	(8.616288e+01 2.677411e+02 -1.758879e-15)	(8.477990e+01 2.681663e+02 -1.758811e-15)	(1.382976e+00 -4.251424e-01 -6.802334e-20)
0.00537756    	(8.638854e+01 2.682587e+02 -1.768549e-15)	(8.500584e+01 2.686832e+02 -1.768485e-15)	(1.382698e+00 -4.245453e-01 -6.394522e-20)
0.0054112     	(8.642774e+01 2.684806e+02 -1.778010e-15)	(8.504533e+01 2.689046e+02 -1.777950e-15)	(1.382407e+00 -4.239409e-01 -5.997415e-20)
0.00544485    	(8.659435e+01 2.688978e+02 -1.788963e-15)	(8.521222e+01 2.693211e+02 -1.788907e-15)	(1.382123e+00 -4.233298e-01 -5.611061e-20)
0.00547852    	(8.665547e+01 2.692229e+02 -1.800044e-15)	(8.527361e+01 2.696456e+02 -1.799992e-15)	(1.381861e+00 -4.227262e-01 -5.248310e-20)
0.00551224    	(8.679760e+01 2.696904e+02 -1.810524e-15)	(8.541602e+01 2.701125e+02 -1.810475e-15)	(1.381582e+00 -4.221196e-01 -4.904457e-20)
0.00554601    	(8.688095e+01 2.699929e+02 -1.819537e-15)	(8.549966e+01 2.704144e+02 -1.819491e-15)	(1.381290e+00 -4.215064e-01 -4.570053e-20)
0.00557984    	(8.705937e+01 2.704278e+02 -1.826808e-15)	(8.567835e+01 2.708487e+02 -1.826766e-15)	(1.381014e+00 -4.208899e-01 -4.239642e-20)
0.00561376    	(8.715269e+01 2.707648e+02 -1.835427e-15)	(8.577197e+01 2.711851e+02 -1.835388e-15)	(1.380719e+00 -4.202909e-01 -3.926072e-20)
0.00564775    	(8.723911e+01 2.711132e+02 -1.843269e-15)	(8.585873e+01 2.715328e+02 -1.843233e-15)	(1.380384e+00 -4.196699e-01 -3.621766e-20)
0.00568183    	(8.745696e+01 2.715950e+02 -1.848798e-15)	(8.607693e+01 2.720141e+02 -1.848765e-15)	(1.380021e+00 -4.190539e-01 -3.333624e-20)
0.00571602    	(8.755022e+01 2.719707e+02 -1.854630e-15)	(8.617055e+01 2.723891e+02 -1.854600e-15)	(1.379669e+00 -4.184410e-01 -3.054939e-20)
0.0057503     	(8.761477e+01 2.721970e+02 -1.859853e-15)	(8.623551e+01 2.726148e+02 -1.859825e-15)	(1.379261e+00 -4.178236e-01 -2.800959e-20)
0.0057847     	(8.786268e+01 2.727568e+02 -1.864610e-15)	(8.648388e+01 2.731740e+02 -1.864584e-15)	(1.378801e+00 -4.171988e-01 -2.586569e-20)
0.00581923    	(8.794722e+01 2.730144e+02 -1.867700e-15)	(8.656877e+01 2.734311e+02 -1.867675e-15)	(1.378457e+00 -4.166795e-01 -2.450572e-20)
0.00585374    	(8.795271e+01 2.732603e+02 -1.872717e-15)	(8.657474e+01 2.736763e+02 -1.872693e-15)	(1.377967e+00 -4.160428e-01 -2.305964e-20)
0.00588823    	(8.816335e+01 2.737450e+02 -1.875312e-15)	(8.678595e+01 2.741605e+02 -1.875290e-15)	(1.377402e+00 -4.154166e-01 -2.209041e-20)
0.00592272    	(8.838611e+01 2.742901e+02 -1.877983e-15)	(8.700932e+01 2.747048e+02 -1.877961e-15)	(1.376790e+00 -4.147815e-01 -2.149784e-20)
0.00595719    	(8.835559e+01 2.744857e+02 -1.883265e-15)	(8.697942e+01 2.748999e+02 -1.883244e-15)	(1.376179e+00 -4.141536e-01 -2.140972e-20)
0.00599163    	(8.849050e+01 2.748965e+02 -1.887384e-15)	(8.711498e+01 2.753100e+02 -1.887362e-15)	(1.375524e+00 -4.135119e-01 -2.183540e-20)
0.00602603    	(8.871257e+01 2.753675e+02 -1.890376e-15)	(8.733777e+01 2.757804e+02 -1.890353e-15)	(1.374801e+00 -4.128757e-01 -2.300589e-20)
0.00606039    	(8.890959e+01 2.757479e+02 -1.894750e-15)	(8.753554e+01 2.761602e+02 -1.894725e-15)	(1.374057e+00 -4.122572e-01 -2.467263e-20)
0.00609472    	(8.891192e+01 2.759708e+02 -1.902110e-15)	(8.753860e+01 2.763824e+02 -1.902083e-15)	(1.373316e+00 -4.116361e-01 -2.658354e-20)
0.00612904    	(8.921686e+01 2.765856e+02 -1.908792e-15)	(8.784432e+01 2.769967e+02 -1.908763e-15)	(1.372544e+00 -4.110071e-01 -2.891726e-20)
0.00616334    	(8.941845e+01 2.770643e+02 -1.916021e-15)	(8.804673e+01 2.774747e+02 -1.915989e-15)	(1.371727e+00 -4.103779e-01 -3.158094e-20)
0.0061976     	(8.955022e+01 2.773567e+02 -1.923782e-15)	(8.817930e+01 2.777665e+02 -1.923747e-15)	(1.370926e+00 -4.097491e-01 -3.424407e-20)
0.00623183    	(8.979138e+01 2.778349e+02 -1.934214e-15)	(8.842127e+01 2.782440e+02 -1.934177e-15)	(1.370103e+00 -4.091008e-01 -3.735665e-20)
0.00626604    	(9.001718e+01 2.783085e+02 -1.943476e-15)	(8.864793e+01 2.787170e+02 -1.943435e-15)	(1.369242e+00 -4.084402e-01 -4.046913e-20)
0.00630024    	(9.024801e+01 2.787501e+02 -1.953063e-15)	(8.887966e+01 2.791579e+02 -1.953020e-15)	(1.368358e+00 -4.077862e-01 -4.325995e-20)
0.00633442    	(9.044395e+01 2.792168e+02 -1.965129e-15)	(8.907647e+01 2.796239e+02 -1.965083e-15)	(1.367481e+00 -4.071408e-01 -4.566872e-20)
0.00636858    	(9.067557e+01 2.797032e+02 -1.975978e-15)	(8.930901e+01 2.801096e+02 -1.975930e-15)	(1.366563e+00 -4.064767e-01 -4.787651e-20)
0.00640269    	(9.100616e+01 2.803062e+02 -1.986022e-15)	(8.964057e+01 2.807120e+02 -1.985972e-15)	(1.365589e+00 -4.058133e-01 -4.974191e-20)
0.00643677    	(9.120335e+01 2.807268e+02 -1.997844e-15)	(8.983874e+01 2.811319e+02 -1.997793e-15)	(1.364619e+00 -4.051552e-01 -5.106462e-20)
0.00647081    	(9.155923e+01 2.813922e+02 -2.006181e-15)	(9.019572e+01 2.817968e+02 -2.006129e-15)	(1.363509e+00 -4.045651e-01 -5.210752e-20)
0.00650483    	(9.174332e+01 2.817608e+02 -2.016577e-15)	(9.038083e+01 2.821647e+02 -2.016524e-15)	(1.362494e+00 -4.038602e-01 -5.230185e-20)
0.00653882    	(9.203998e+01 2.823089e+02 -2.026718e-15)	(9.067851e+01 2.827121e+02 -2.026666e-15)	(1.361467e+00 -4.031597e-01 -5.190241e-20)
0.00657281    	(9.237159e+01 2.829184e+02 -2.035449e-15)	(9.101114e+01 2.833209e+02 -2.035398e-15)	(1.360443e+00 -4.024742e-01 -5.096975e-20)
0.00660678    	(9.264850e+01 2.834738e+02 -2.043822e-15)	(9.128909e+01 2.838755e+02 -2.043773e-15)	(1.359408e+00 -4.017551e-01 -4.940876e-20)
0.00664076    	(9.286689e+01 2.839074e+02 -2.051712e-15)	(9.150853e+01 2.843085e+02 -2.051665e-15)	(1.358356e+00 -4.010134e-01 -4.726047e-20)
0.00667473    	(9.316853e+01 2.844649e+02 -2.060027e-15)	(9.181123e+01 2.848652e+02 -2.059982e-15)	(1.357296e+00 -4.003048e-01 -4.447779e-20)
0.00670872    	(9.345182e+01 2.849647e+02 -2.065933e-15)	(9.209557e+01 2.853643e+02 -2.065892e-15)	(1.356245e+00 -3.995971e-01 -4.113269e-20)
0.00674271    	(9.368969e+01 2.854769e+02 -2.072483e-15)	(9.233452e+01 2.858757e+02 -2.072446e-15)	(1.355169e+00 -3.988657e-01 -3.709977e-20)
0.00677674    	(9.385609e+01 2.858953e+02 -2.078386e-15)	(9.250200e+01 2.862934e+02 -2.078354e-15)	(1.354092e+00 -3.981037e-01 -3.206367e-20)
0.00681079    	(9.422960e+01 2.865746e+02 -2.081479e-15)	(9.287664e+01 2.869720e+02 -2.081452e-15)	(1.352960e+00 -3.974368e-01 -2.693185e-20)
0.00684486    	(9.448115e+01 2.870870e+02 -2.084831e-15)	(9.312926e+01 2.874837e+02 -2.084810e-15)	(1.351888e+00 -3.966587e-01 -2.075677e-20)
0.00687897    	(9.472658e+01 2.876161e+02 -2.087083e-15)	(9.337580e+01 2.880119e+02 -2.087069e-15)	(1.350779e+00 -3.958540e-01 -1.382546e-20)
0.00691312    	(9.492170e+01 2.880957e+02 -2.088802e-15)	(9.357202e+01 2.884907e+02 -2.088796e-15)	(1.349677e+00 -3.950306e-01 -6.458004e-21)
0.0069473     	(9.532535e+01 2.888019e+02 -2.087797e-15)	(9.397678e+01 2.891962e+02 -2.087798e-15)	(1.348568e+00 -3.942378e-01 9.129963e-22)
0.00698154    	(9.566241e+01 2.894248e+02 -2.085004e-15)	(9.431501e+01 2.898183e+02 -2.085012e-15)	(1.347407e+00 -3.934311e-01 8.338954e-21)
0.00701581    	(9.594025e+01 2.899361e+02 -2.081552e-15)	(9.459403e+01 2.903287e+02 -2.081567e-15)	(1.346211e+00 -3.925959e-01 1.534600e-20)
0.00705015    	(9.627383e+01 2.904588e+02 -2.073243e-15)	(9.492879e+01 2.908505e+02 -2.073265e-15)	(1.345038e+00 -3.917550e-01 2.219357e-20)
0.00708454    	(9.662706e+01 2.910974e+02 -2.068121e-15)	(9.528326e+01 2.914883e+02 -2.068148e-15)	(1.343809e+00 -3.909201e-01 2.787873e-20)
0.00711897    	(9.690063e+01 2.915866e+02 -2.060129e-15)	(9.555812e+01 2.919767e+02 -2.060162e-15)	(1.342511e+00 -3.900510e-01 3.245771e-20)