# Force       
# CofR        : (5.000000e+00 5.000000e-03 0.000000e+00)
#
# Time        	(total_x total_y total_z)	(pressure_x pressure_y pressure_z)	(viscous_x viscous_y viscous_z)
1.20005e-05   	(6.554784e+04 1.337621e+05 -5.143154e-13)	(6.554703e+04 1.337621e+05 -5.143154e-13)	(8.018835e-01 -5.364638e-02 -4.138677e-20)
2.64017e-05   	(1.964325e+03 3.613987e+03 -1.414381e-14)	(1.963536e+03 3.614062e+03 -1.414377e-14)	(7.884853e-01 -7.443686e-02 -3.459775e-20)
4.36833e-05   	(3.903822e+02 6.684977e+02 -3.003144e-15)	(3.895951e+02 6.685814e+02 -3.003112e-15)	(7.871351e-01 -8.374319e-02 -3.122558e-20)
6.44211e-05   	(1.397678e+02 3.168877e+02 -1.122743e-15)	(1.389795e+02 3.169758e+02 -1.122712e-15)	(7.883135e-01 -8.812491e-02 -3.034670e-20)
8.93055e-05   	(7.203733e+01 2.377124e+02 -6.225616e-16)	(7.124718e+01 2.378034e+02 -6.225323e-16)	(7.901569e-01 -9.100961e-02 -2.923152e-20)
0.000119165   	(6.741668e+01 2.376651e+02 -5.675776e-16)	(6.662385e+01 2.377583e+02 -5.675498e-16)	(7.928208e-01 -9.320075e-02 -2.774828e-20)
0.00015499    	(8.062509e+01 2.447797e+02 -6.402681e-16)	(7.982837e+01 2.448747e+02 -6.402421e-16)	(7.967188e-01 -9.499506e-02 -2.601614e-20)
0.000197972   	(9.471211e+01 2.560665e+02 -7.252037e-16)	(9.391014e+01 2.561629e+02 -7.251801e-16)	(8.019652e-01 -9.643440e-02 -2.359731e-20)
0.000249549   	(1.030464e+02 2.649185e+02 -7.841021e-16)	(1.022380e+02 2.650161e+02 -7.840816e-16)	(8.083606e-01 -9.760095e-02 -2.055374e-20)
0.000310151   	(1.042825e+02 2.618532e+02 -7.942920e-16)	(1.034675e+02 2.619518e+02 -7.942748e-16)	(8.150280e-01 -9.861740e-02 -1.719363e-20)
0.000379718   	(1.054149e+02 2.626863e+02 -8.383851e-16)	(1.045934e+02 2.627862e+02 -8.383698e-16)	(8.214900e-01 -9.989943e-02 -1.533968e-20)
0.000458221   	(1.123428e+02 2.803319e+02 -9.246462e-16)	(1.115152e+02 2.804342e+02 -9.246312e-16)	(8.275188e-01 -1.023002e-01 -1.500792e-20)
0.000545462   	(1.173787e+02 2.949073e+02 -9.478700e-16)	(1.165453e+02 2.950136e+02 -9.478545e-16)	(8.333472e-01 -1.063008e-01 -1.552923e-20)
0.000627655   	(1.131160e+02 2.838089e+02 -8.723106e-16)	(1.122785e+02 2.839201e+02 -8.722948e-16)	(8.374997e-01 -1.112351e-01 -1.576155e-20)
0.000705229   	(1.090136e+02 2.773555e+02 -8.199734e-16)	(1.081729e+02 2.774722e+02 -8.199572e-16)	(8.406215e-01 -1.167314e-01 -1.626606e-20)
0.000779385   	(1.046547e+02 2.699073e+02 -7.580079e-16)	(1.038119e+02 2.700298e+02 -7.579907e-16)	(8.428239e-01 -1.225523e-01 -1.723785e-20)
0.000851389   	(1.002821e+02 2.594202e+02 -6.819696e-16)	(9.943766e+01 2.595489e+02 -6.819505e-16)	(8.444243e-01 -1.286536e-01 -1.911855e-20)
0.000921757   	(9.678591e+01 2.525336e+02 -6.282173e-16)	(9.594023e+01 2.526685e+02 -6.281961e-16)	(8.456800e-01 -1.349479e-01 -2.121730e-20)
0.000991285   	(9.289713e+01 2.476400e+02 -5.802312e-16)	(9.205031e+01 2.477816e+02 -5.802072e-16)	(8.468225e-01 -1.415936e-01 -2.404471e-20)
0.00106062    	(8.847517e+01 2.435740e+02 -5.268942e-16)	(8.762705e+01 2.437228e+02 -5.268671e-16)	(8.481123e-01 -1.487988e-01 -2.712484e-20)
0.00113005    	(8.337689e+01 2.409882e+02 -4.597622e-16)	(8.252695e+01 2.411455e+02 -4.597343e-16)	(8.499413e-01 -1.572323e-01 -2.784160e-20)
0.00120002    	(7.673259e+01 2.421774e+02 -3.762800e-16)	(7.588008e+01 2.423443e+02 -3.762568e-16)	(8.525102e-01 -1.668454e-01 -2.319851e-20)
0.00127095    	(6.783432e+01 2.667850e+02 -2.764184e-16)	(6.697894e+01 2.669606e+02 -2.764051e-16)	(8.553807e-01 -1.755281e-01 -1.329274e-20)
0.00134317    	(5.488061e+01 3.229307e+02 -1.802569e-16)	(5.402353e+01 3.231128e+02 -1.802524e-16)	(8.570744e-01 -1.820471e-01 -4.497969e-21)
0.0014168     	(2.264307e+01 2.716613e+02 -8.620291e-17)	(2.178407e+01 2.718486e+02 -8.620669e-17)	(8.590018e-01 -1.873173e-01 3.773439e-21)
0.00149097    	(-5.710437e+01 9.723446e+01 1.623035e-16)	(-5.796573e+01 9.742481e+01 1.623012e-16)	(8.613552e-01 -1.903528e-01 2.374992e-21)
0.00156499    	(-1.554573e+02 -6.548228e+01 5.205655e-16)	(-1.563191e+02 -6.529291e+01 5.205796e-16)	(8.618757e-01 -1.893680e-01 -1.408600e-20)
0.00163916    	(-6.153358e+01 4.641209e+01 9.689910e-17)	(-6.239835e+01 4.660191e+01 9.692460e-17)	(8.647639e-01 -1.898182e-01 -2.549963e-20)
0.00171351    	(2.759988e+01 1.705566e+02 -2.698706e-16)	(2.673086e+01 1.707486e+02 -2.698392e-16)	(8.690208e-01 -1.919970e-01 -3.142036e-20)
0.00178791    	(4.622997e+01 2.003315e+02 -3.420859e-16)	(4.535735e+01 2.005261e+02 -3.420510e-16)	(8.726124e-01 -1.945872e-01 -3.498171e-20)
0.00186243    	(4.765304e+01 2.040113e+02 -3.423865e-16)	(4.677682e+01 2.042084e+02 -3.423476e-16)	(8.762224e-01 -1.971296e-01 -3.893263e-20)
0.00193706    	(4.810304e+01 2.043221e+02 -3.375672e-16)	(4.722339e+01 2.045217e+02 -3.375241e-16)	(8.796464e-01 -1.996140e-01 -4.314795e-20)
0.00201197    	(4.800548e+01 2.051685e+02 -3.306412e-16)	(4.712239e+01 2.053707e+02 -3.305942e-16)	(8.830826e-01 -2.021078e-01 -4.704425e-20)
0.00208695    	(4.835804e+01 2.063474e+02 -3.261135e-16)	(4.747211e+01 2.065518e+02 -3.260633e-16)	(8.859260e-01 -2.043664e-01 -5.019959e-20)
0.00216226    	(4.854466e+01 2.073936e+02 -3.215590e-16)	(4.765591e+01 2.076002e+02 -3.215064e-16)	(8.887537e-01 -2.066025e-01 -5.259982e-20)
0.00223758    	(4.923634e+01 2.091319e+02 -3.200028e-16)	(4.834497e+01 2.093407e+02 -3.199485e-16)	(8.913682e-01 -2.087630e-01 -5.435177e-20)
0.00231301    	(5.012995e+01 2.111481e+02 -3.206531e-16)	(4.923576e+01 2.113591e+02 -3.205976e-16)	(8.941970e-01 -2.110080e-01 -5.559084e-20)
0.00238839    	(5.131138e+01 2.137063e+02 -3.236766e-16)	(5.041525e+01 2.139192e+02 -3.236204e-16)	(8.961344e-01 -2.128696e-01 -5.625429e-20)
0.00246348    	(5.253107e+01 2.163370e+02 -3.271483e-16)	(5.163315e+01 2.165516e+02 -3.270918e-16)	(8.979220e-01 -2.146243e-01 -5.650840e-20)
0.00253827    	(5.341801e+01 2.178430e+02 -3.304732e-16)	(5.251843e+01 2.180593e+02 -3.304168e-16)	(8.995801e-01 -2.163362e-01 -5.639921e-20)
0.00261313    	(5.419972e+01 2.198711e+02 -3.342310e-16)	(5.329842e+01 2.200892e+02 -3.341746e-16)	(9.012941e-01 -2.181159e-01 -5.633899e-20)
0.00268764    	(5.489364e+01 2.213608e+02 -3.359236e-16)	(5.399061e+01 2.215806e+02 -3.358703e-16)	(9.030277e-01 -2.197746e-01 -5.331257e-20)
0.00276244    	(5.571200e+01 2.231237e+02 -3.390740e-16)	(5.480709e+01 2.233452e+02 -3.390274e-16)	(9.049099e-01 -2.214820e-01 -4.662346e-20)
0.00283695    	(5.617921e+01 2.243436e+02 -3.391478e-16)	(5.527370e+01 2.245662e+02 -3.391057e-16)	(9.055067e-01 -2.226103e-01 -4.209998e-20)
0.00291163    	(5.653084e+01 2.256030e+02 -3.378605e-16)	(5.562227e+01 2.258278e+02 -3.378228e-16)	(9.085679e-01 -2.247758e-01 -3.770975e-20)
0.00298638    	(5.696813e+01 2.265713e+02 -3.375079e-16)	(5.605837e+01 2.267976e+02 -3.374793e-16)	(9.097673e-01 -2.262305e-01 -2.863942e-20)
0.00306112    	(5.711979e+01 2.271140e+02 -3.334961e-16)	(5.620929e+01 2.273412e+02 -3.334763e-16)	(9.104973e-01 -2.272298e-01 -1.976268e-20)
0.0031362     	(5.713646e+01 2.275834e+02 -3.288816e-16)	(5.622492e+01 2.278117e+02 -3.288699e-16)	(9.115431e-01 -2.283255e-01 -1.175527e-20)
0.00321112    	(5.734222e+01 2.282561e+02 -3.260034e-16)	(5.642995e+01 2.284853e+02 -3.259997e-16)	(9.122708e-01 -2.292531e-01 -3.642728e-21)
0.00328638    	(5.728308e+01 2.283006e+02 -3.218778e-16)	(5.636835e+01 2.285316e+02 -3.218859e-16)	(9.147264e-01 -2.309518e-01 8.030602e-21)
0.00336165    	(5.731382e+01 2.286939e+02 -3.181761e-16)	(5.639801e+01 2.289260e+02 -3.181892e-16)	(9.158152e-01 -2.320733e-01 1.306852e-20)
0.00343703    	(5.739253e+01 2.292981e+02 -3.160562e-16)	(5.647567e+01 2.295312e+02 -3.160734e-16)	(9.168603e-01 -2.331126e-01 1.713313e-20)
0.00351276    	(5.748335e+01 2.295780e+02 -3.140602e-16)	(5.656522e+01 2.298121e+02 -3.140805e-16)	(9.181290e-01 -2.340887e-01 2.032035e-20)
0.0035885     	(5.764532e+01 2.302068e+02 -3.126555e-16)	(5.672615e+01 2.304417e+02 -3.126774e-16)	(9.191669e-01 -2.349210e-01 2.186180e-20)
0.00366477    	(5.765680e+01 2.305269e+02 -3.108248e-16)	(5.673645e+01 2.307627e+02 -3.108466e-16)	(9.203582e-01 -2.358220e-01 2.182387e-20)
0.00374184    	(5.768696e+01 2.307839e+02 -3.089190e-16)	(5.676461e+01 2.310210e+02 -3.089381e-16)	(9.223545e-01 -2.370769e-01 1.907480e-20)
0.00381903    	(5.793694e+01 2.316555e+02 -3.076521e-16)	(5.701330e+01 2.318936e+02 -3.076715e-16)	(9.236420e-01 -2.380619e-01 1.937586e-20)
0.00389635    	(5.800425e+01 2.322009e+02 -3.058678e-16)	(5.707929e+01 2.324399e+02 -3.058877e-16)	(9.249579e-01 -2.390191e-01 1.989842e-20)
0.00397379    	(5.817033e+01 2.328980e+02 -3.045470e-16)	(5.724411e+01 2.331378e+02 -3.045681e-16)	(9.262192e-01 -2.397833e-01 2.107913e-20)
0.00405129    	(5.849516e+01 2.338783e+02 -3.049084e-16)	(5.756765e+01 2.341188e+02 -3.049317e-16)	(9.275086e-01 -2.404987e-01 2.326508e-20)
0.00412886    	(5.888118e+01 2.350091e+02 -3.064106e-16)	(5.795240e+01 2.352503e+02 -3.064377e-16)	(9.287742e-01 -2.412187e-01 2.712013e-20)
0.00420574    	(5.924021e+01 2.359695e+02 -3.106671e-16)	(5.831015e+01 2.362114e+02 -3.106998e-16)	(9.300619e-01 -2.419046e-01 3.275790e-20)
0.00428153    	(5.958561e+01 2.371754e+02 -3.173606e-16)	(5.865421e+01 2.374181e+02 -3.173997e-16)	(9.314074e-01 -2.427836e-01 3.905272e-20)
0.00435654    	(6.013393e+01 2.383736e+02 -3.266879e-16)	(5.920104e+01 2.386171e+02 -3.267331e-16)	(9.328864e-01 -2.435340e-01 4.518695e-20)
0.00443097    	(6.064749e+01 2.396704e+02 -3.377194e-16)	(5.971331e+01 2.399146e+02 -3.377743e-16)	(9.341861e-01 -2.441786e-01 5.494250e-20)
0.00450494    	(6.094474e+01 2.406268e+02 -3.502511e-16)	(6.000897e+01 2.408719e+02 -3.503166e-16)	(9.357665e-01 -2.450101e-01 6.552711e-20)
0.00457857    	(6.152244e+01 2.420165e+02 -3.624780e-16)	(6.058544e+01 2.422621e+02 -3.625537e-16)	(9.369988e-01 -2.455472e-01 7.576947e-20)
0.00465197    	(6.198170e+01 2.430779e+02 -3.740247e-16)	(6.104357e+01 2.433240e+02 -3.741099e-16)	(9.381273e-01 -2.460488e-01 8.524595e-20)
0.00472526    	(6.218064e+01 2.436832e+02 -3.844813e-16)	(6.124142e+01 2.439297e+02 -3.845754e-16)	(9.392182e-01 -2.465037e-01 9.405327e-20)
0.00479855    	(6.259148e+01 2.446685e+02 -3.943197e-16)	(6.165126e+01 2.449155e+02 -3.944210e-16)	(9.402182e-01 -2.469355e-01 1.013355e-19)
0.00487195    	(6.308567e+01 2.458005e+02 -4.027808e-16)	(6.214457e+01 2.460478e+02 -4.028886e-16)	(9.411036e-01 -2.472952e-01 1.077381e-19)
0.00494552    	(6.353671e+01 2.467136e+02 -4.107947e-16)	(6.259480e+01 2.469612e+02 -4.109092e-16)	(9.419086e-01 -2.476517e-01 1.145192e-19)
0.00501943    	(6.376264e+01 2.474429e+02 -4.164716e-16)	(6.282013e+01 2.476911e+02 -4.165938e-16)	(9.425084e-01 -2.481316e-01 1.221877e-19)
0.0050937     	(6.399862e+01 2.481309e+02 -4.203878e-16)	(6.305542e+01 2.483793e+02 -4.205173e-16)	(9.432005e-01 -2.483385e-01 1.295150e-19)
0.00516842    	(6.439055e+01 2.491519e+02 -4.242539e-16)	(6.344657e+01 2.494008e+02 -4.243896e-16)	(9.439867e-01 -2.488954e-01 1.356439e-19)
0.00524363    	(6.453742e+01 2.497366e+02 -4.263135e-16)	(6.359298e+01 2.499856e+02 -4.264540e-16)	(9.444348e-01 -2.489568e-01 1.405117e-19)
0.00531937    	(6.477922e+01 2.506330e+02 -4.270484e-16)	(6.383439e+01 2.508820e+02 -4.271919e-16)	(9.448224e-01 -2.489774e-01 1.434553e-19)
0.00539567    	(6.509783e+01 2.516233e+02 -4.275647e-16)	(6.415269e+01 2.518722e+02 -4.277089e-16)	(9.451313e-01 -2.489209e-01 1.441739e-19)
0.00547258    	(6.542297e+01 2.526236e+02 -4.280659e-16)	(6.447760e+01 2.528725e+02 -4.282085e-16)	(9.453726e-01 -2.488801e-01 1.426518e-19)
0.005549      	(6.567691e+01 2.535561e+02 -4.271227e-16)	(6.473134e+01 2.538049e+02 -4.272619e-16)	(9.455681e-01 -2.488209e-01 1.391848e-19)
0.00562498    	(6.587938e+01 2.543286e+02 -4.249017e-16)	(6.493366e+01 2.545773e+02 -4.250371e-16)	(9.457249e-01 -2.487299e-01 1.354800e-19)
0.0057006     	(6.624545e+01 2.551936e+02 -4.241936e-16)	(6.529972e+01 2.554424e+02 -4.243252e-16)	(9.457271e-01 -2.488005e-01 1.315843e-19)
0.00577592    	(6.642941e+01 2.559133e+02 -4.231178e-16)	(6.548358e+01 2.561620e+02 -4.232461e-16)	(9.458305e-01 -2.486419e-01 1.282341e-19)
0.00585094    	(6.686863e+01 2.569956e+02 -4.237163e-16)	(6.592274e+01 2.572440e+02 -4.238422e-16)	(9.458978e-01 -2.484649e-01 1.259175e-19)
0.00592566    	(6.732386e+01 2.581355e+02 -4.243508e-16)	(6.637795e+01 2.583837e+02 -4.244766e-16)	(9.459190e-01 -2.482188e-01 1.258489e-19)
0.00600015    	(6.772608e+01 2.590974e+02 -4.263779e-16)	(6.678007e+01 2.593456e+02 -4.265055e-16)	(9.460090e-01 -2.481664e-01 1.276937e-19)
0.00607446    	(6.811463e+01 2.601022e+02 -4.277181e-16)	(6.716873e+01 2.603501e+02 -4.278485e-16)	(9.458943e-01 -2.478521e-01 1.304194e-19)
0.00614859    	(6.846274e+01 2.610489e+02 -4.282522e-16)	(6.751704e+01 2.612964e+02 -4.283859e-16)	(9.456968e-01 -2.474865e-01 1.337684e-19)
0.00622249    	(6.895496e+01 2.620224e+02 -4.304816e-16)	(6.800951e+01 2.622695e+02 -4.306188e-16)	(9.454507e-01 -2.470742e-01 1.371412e-19)
0.00629621    	(6.935733e+01 2.630656e+02 -4.302330e-16)	(6.841215e+01 2.633124e+02 -4.303727e-16)	(9.451770e-01 -2.468358e-01 1.396983e-19)
0.00636982    	(6.983866e+01 2.642993e+02 -4.310153e-16)	(6.889379e+01 2.645456e+02 -4.311562e-16)	(9.448753e-01 -2.463128e-01 1.408691e-19)
0.00644331    	(7.035999e+01 2.653695e+02 -4.313287e-16)	(6.941546e+01 2.656153e+02 -4.314689e-16)	(9.445326e-01 -2.457917e-01 1.401601e-19)
0.00651675    	(7.075385e+01 2.663898e+02 -4.302806e-16)	(6.980971e+01 2.666350e+02 -4.304183e-16)	(9.441418e-01 -2.452702e-01 1.376988e-19)
0.00659019    	(7.114969e+01 2.675481e+02 -4.277569e-16)	(7.020604e+01 2.677928e+02 -4.278904e-16)	(9.436547e-01 -2.447119e-01 1.335547e-19)
0.00666356    	(7.168026e+01 2.688933e+02 -4.255360e-16)	(7.073709e+01 2.691374e+02 -4.256640e-16)	(9.431608e-01 -2.441197e-01 1.280100e-19)
0.00673694    	(7.231994e+01 2.702182e+02 -4.247624e-16)	(7.137733e+01 2.704616e+02 -4.248831e-16)	(9.426095e-01 -2.434856e-01 1.206987e-19)
0.00681032    	(7.260242e+01 2.712603e+02 -4.209067e-16)	(7.166034e+01 2.715032e+02 -4.210185e-16)	(9.420730e-01 -2.429927e-01 1.117462e-19)
0.00688375    	(7.316148e+01 2.724486e+02 -4.187704e-16)	(7.222007e+01 2.726911e+02 -4.188723e-16)	(9.414132e-01 -2.425003e-01 1.018653e-19)
0.00695719    	(7.387536e+01 2.739474e+02 -4.174002e-16)	(7.293456e+01 2.741891e+02 -4.174912e-16)	(9.408027e-01 -2.417016e-01 9.104948e-20)
0.00703068    	(7.435791e+01 2.750481e+02 -4.142405e-16)	(7.341771e+01 2.752890e+02 -4.143196e-16)	(9.401951e-01 -2.408743e-01 7.901344e-20)
0.00710423    	(7.467262e+01 2.759789e+02 -4.083518e-16)	(7.373304e+01 2.762189e+02 -4.084182e-16)	(9.395775e-01 -2.400586e-01 6.634965e-20)
0.00717784    	(7.519379e+01 2.773397e+02 -4.032983e-16)	(7.425486e+01 2.775789e+02 -4.033509e-16)	(9.389294e-01 -2.392060e-01 5.251969e-20)
0.00725151    	(7.585253e+01 2.785784e+02 -3.986093e-16)	(7.491424e+01 2.788167e+02 -3.986474e-16)	(9.382930e-01 -2.383235e-01 3.806835e-20)
0.00732524    	(7.636962e+01 2.799258e+02 -3.915732e-16)	(7.543197e+01 2.801632e+02 -3.915976e-16)	(9.376542e-01 -2.374531e-01 2.443291e-20)
0.00739908    	(7.690998e+01 2.811059e+02 -3.841758e-16)	(7.597289e+01 2.813426e+02 -3.841868e-16)	(9.370936e-01 -2.366679e-01 1.097807e-20)
0.00747299    	(7.755055e+01 2.825547e+02 -3.754588e-16)	(7.661423e+01 2.827904e+02 -3.754560e-16)	(9.363201e-01 -2.356860e-01 -2.853652e-21)
0.00754701    	(7.823420e+01 2.841206e+02 -3.647651e-16)	(7.729864e+01 2.843553e+02 -3.647489e-16)	(9.355594e-01 -2.346915e-01 -1.613530e-20)
0.00762115    	(7.865078e+01 2.853309e+02 -3.498164e-16)	(7.771598e+01 2.855646e+02 -3.497888e-16)	(9.348010e-01 -2.337146e-01 -2.764259e-20)
0.00769541    	(7.937726e+01 2.867289e+02 -3.368634e-16)	(7.844327e+01 2.869616e+02 -3.368247e-16)	(9.339903e-01 -2.327014e-01 -3.867355e-20)
0.00776979    	(8.018258e+01 2.884634e+02 -3.232848e-16)	(7.924941e+01 2.886951e+02 -3.232355e-16)	(9.331702e-01 -2.316935e-01 -4.929770e-20)
0.00784429    	(8.066257e+01 2.898327e+02 -3.056192e-16)	(7.973016e+01 2.900634e+02 -3.055601e-16)	(9.324105e-01 -2.306594e-01 -5.911604e-20)
0.00791891    	(8.133884e+01 2.913391e+02 -2.919584e-16)	(8.040710e+01 2.915688e+02 -2.918899e-16)	(9.317443e-01 -2.297546e-01 -6.846349e-20)
0.00799365    	(8.218220e+01 2.929694e+02 -2.769823e-16)	(8.125132e+01 2.931980e+02 -2.769040e-16)	(9.308740e-01 -2.286656e-01 -7.828090e-20)
0.00806851    	(8.276978e+01 2.944550e+02 -2.623675e-16)	(8.183979e+01 2.946826e+02 -2.622791e-16)	(9.299878e-01 -2.275465e-01 -8.839000e-20)
0.0081435     	(8.303006e+01 2.954547e+02 -2.453926e-16)	(8.210087e+01 2.956811e+02 -2.452941e-16)	(9.291934e-01 -2.263988e-01 -9.850419e-20)
0.0082186     	(8.395303e+01 2.971204e+02 -2.381217e-16)	(8.302467e+01 2.973457e+02 -2.380122e-16)	(9.283671e-01 -2.252851e-01 -1.095696e-19)
0.0082939     	(8.467984e+01 2.986916e+02 -2.294134e-16)	(8.375236e+01 2.989158e+02 -2.292919e-16)	(9.274735e-01 -2.241668e-01 -1.215151e-19)
0.00836937    	(8.508184e+01 2.998360e+02 -2.184919e-16)	(8.415525e+01 3.000590e+02 -2.183581e-16)	(9.265919e-01 -2.230354e-01 -1.337190e-19)
0.00844498    	(8.554802e+01 3.010743e+02 -2.097293e-16)	(8.462222e+01 3.012963e+02 -2.095838e-16)	(9.258036e-01 -2.220227e-01 -1.455020e-19)
0.00852077    	(8.650246e+01 3.026977e+02 -2.104478e-16)	(8.557764e+01 3.029185e+02 -2.102912e-16)	(9.248228e-01 -2.208305e-01 -1.566426e-19)
0.0085965     	(8.703711e+01 3.040513e+02 -2.062404e-16)	(8.611331e+01 3.042709e+02 -2.060739e-16)	(9.237986e-01 -2.196326e-01 -1.665488e-19)
0.00867216    	(8.733635e+01 3.050528e+02 -1.978395e-16)	(8.641359e+01 3.052713e+02 -1.976643e-16)	(9.227553e-01 -2.184495e-01 -1.751982e-19)
0.00874776    	(8.824874e+01 3.067648e+02 -1.995115e-16)	(8.732712e+01 3.069821e+02 -1.993291e-16)	(9.216253e-01 -2.173147e-01 -1.824181e-19)
0.0088233     	(8.883388e+01 3.078926e+02 -1.980532e-16)	(8.791345e+01 3.081088e+02 -1.978652e-16)	(9.204346e-01 -2.161955e-01 -1.880416e-19)
0.00889878    	(8.923512e+01 3.090071e+02 -1.947571e-16)	(8.831630e+01 3.092223e+02 -1.945639e-16)	(9.188176e-01 -2.152199e-01 -1.931863e-19)
0.00897426    	(8.962051e+01 3.100426e+02 -1.923818e-16)	(8.870286e+01 3.102569e+02 -1.921848e-16)	(9.176523e-01 -2.142724e-01 -1.970403e-19)
0.00904967    	(9.045794e+01 3.115860e+02 -1.968544e-16)	(8.954147e+01 3.117990e+02 -1.966537e-16)	(9.164653e-01 -2.130616e-01 -2.006694e-19)
0.00912509    	(9.098100e+01 3.125935e+02 -1.994107e-16)	(9.006574e+01 3.128053e+02 -1.992065e-16)	(9.152642e-01 -2.118356e-01 -2.041128e-19)
0.0092005     	(9.129718e+01 3.136622e+02 -1.997732e-16)	(9.038306e+01 3.138728e+02 -1.995649e-16)	(9.141202e-01 -2.105987e-01 -2.082452e-19)
0.00927592    	(9.209658e+01 3.150942e+02 -2.101940e-16)	(9.118356e+01 3.153035e+02 -2.099822e-16)	(9.130181e-01 -2.093675e-01 -2.118494e-19)
0.00935133    	(9.264247e+01 3.163501e+02 -2.206303e-16)	(9.173058e+01 3.165582e+02 -2.204166e-16)	(9.118930e-01 -2.081425e-01 -2.137474e-19)
0.00942675    	(9.312484e+01 3.171918e+02 -2.319401e-16)	(9.221417e+01 3.173987e+02 -2.317258e-16)	(9.106679e-01 -2.069524e-01 -2.142676e-19)
0.0095021     	(9.332192e+01 3.178239e+02 -2.392453e-16)	(9.241244e+01 3.180296e+02 -2.390321e-16)	(9.094859e-01 -2.057642e-01 -2.132450e-19)
0.00957733    	(9.398283e+01 3.188073e+02 -2.580592e-16)	(9.307479e+01 3.190120e+02 -2.578494e-16)	(9.080370e-01 -2.047229e-01 -2.098070e-19)
0.00965249    	(9.438551e+01 3.197301e+02 -2.754797e-16)	(9.347858e+01 3.199336e+02 -2.752767e-16)	(9.069313e-01 -2.035409e-01 -2.029622e-19)
0.00972759    	(9.479815e+01 3.203809e+02 -2.926565e-16)	(9.389235e+01 3.205833e+02 -2.924624e-16)	(9.057983e-01 -2.023600e-01 -1.940453e-19)
0.00980263    	(9.517402e+01 3.211455e+02 -3.113993e-16)	(9.426931e+01 3.213467e+02 -3.112155e-16)	(9.047081e-01 -2.011966e-01 -1.838167e-19)
0.00987767    	(9.572087e+01 3.220420e+02 -3.323656e-16)	(9.481723e+01 3.222421e+02 -3.321923e-16)	(9.036317e-01 -2.000381e-01 -1.732792e-19)
0.00995265    	(9.610848e+01 3.229241e+02 -3.545792e-16)	(9.520594e+01 3.231230e+02 -3.544163e-16)	(9.025455e-01 -1.989036e-01 -1.629833e-19)
0.0100276     	(9.638368e+01 3.233614e+02 -3.756264e-16)	(9.548226e+01 3.235592e+02 -3.754734e-16)	(9.014266e-01 -1.977783e-01 -1.530111e-19)
0.0101024     	(9.694291e+01 3.242197e+02 -3.997333e-16)	(9.604257e+01 3.244164e+02 -3.995895e-16)	(9.003365e-01 -1.966820e-01 -1.438148e-19)
0.0101772     	(9.730832e+01 3.250029e+02 -4.228660e-16)	(9.640930e+01 3.251986e+02 -4.227295e-16)	(8.990174e-01 -1.956823e-01 -1.365842e-19)
0.010252      	(9.768585e+01 3.257409e+02 -4.476308e-16)	(9.678790e+01 3.259355e+02 -4.475018e-16)	(8.979527e-01 -1.945902e-01 -1.290450e-19)
0.0103267     	(9.801430e+01 3.263545e+02 -4.688287e-16)	(9.711742e+01 3.265480e+02 -4.687071e-16)	(8.968791e-01 -1.935159e-01 -1.215400e-19)
0.0104015     	(9.873855e+01 3.276094e+02 -4.950991e-16)	(9.784271e+01 3.278019e+02 -4.949851e-16)	(8.958446e-01 -1.924771e-01 -1.140034e-19)
0.0104761     	(9.910716e+01 3.283783e+02 -5.192628e-16)	(9.821235e+01 3.285698e+02 -5.191552e-16)	(8.948061e-01 -1.914481e-01 -1.076205e-19)
0.0105508     	(9.956022e+01 3.293665e+02 -5.430698e-16)	(9.866647e+01 3.295570e+02 -5.429685e-16)	(8.937525e-01 -1.904425e-01 -1.013195e-19)
0.0106254     	(9.992529e+01 3.301269e+02 -5.668056e-16)	(9.903262e+01 3.303164e+02 -5.667113e-16)	(8.926706e-01 -1.894782e-01 -9.429195e-20)
0.0106999     	(1.005879e+02 3.312702e+02 -5.952127e-16)	(9.969629e+01 3.314588e+02 -5.951264e-16)	(8.916321e-01 -1.885649e-01 -8.635443e-20)
0.0107742     	(1.011056e+02 3.324903e+02 -6.193106e-16)	(1.002152e+02 3.326781e+02 -6.192327e-16)	(8.904135e-01 -1.877883e-01 -7.784763e-20)
0.0108485     	(1.013378e+02 3.328704e+02 -6.414728e-16)	(1.004484e+02 3.330572e+02 -6.414045e-16)	(8.894086e-01 -1.868754e-01 -6.826144e-20)
0.0109227     	(1.015607e+02 3.332899e+02 -6.658904e-16)	(1.006723e+02 3.334758e+02 -6.658331e-16)	(8.883989e-01 -1.859713e-01 -5.732276e-20)
0.0109968     	(1.016989e+02 3.330059e+02 -6.923884e-16)	(1.008115e+02 3.331909e+02 -6.923437e-16)	(8.874115e-01 -1.850629e-01 -4.471252e-20)
0.0110708     	(1.018080e+02 3.331099e+02 -7.165155e-16)	(1.009215e+02 3.332940e+02 -7.164849e-16)	(8.864200e-01 -1.841586e-01 -3.066119e-20)
0.0111448     	(1.013742e+02 3.317212e+02 -7.379395e-16)	(1.004888e+02 3.319044e+02 -7.379238e-16)	(8.854185e-01 -1.832253e-01 -1.573507e-20)
0.0112187     	(1.014261e+02 3.317203e+02 -7.625149e-16)	(1.005417e+02 3.319027e+02 -7.625145e-16)	(8.844299e-01 -1.823699e-01 -4.430558e-22)
0.0112926     	(1.015619e+02 3.314231e+02 -7.904303e-16)	(1.006784e+02 3.316046e+02 -7.904450e-16)	(8.834469e-01 -1.815840e-01 1.470692e-20)
0.0113665     	(1.015838e+02 3.312014e+02 -8.152120e-16)	(1.007013e+02 3.313822e+02 -8.152412e-16)	(8.825013e-01 -1.808383e-01 2.928128e-20)
0.0114403     	(1.014560e+02 3.307897e+02 -8.374201e-16)	(1.005746e+02 3.309699e+02 -8.374628e-16)	(8.814668e-01 -1.802840e-01 4.264630e-20)
0.0115141     	(1.014991e+02 3.308483e+02 -8.621626e-16)	(1.006185e+02 3.310280e+02 -8.622174e-16)	(8.805655e-01 -1.796148e-01 5.485272e-20)
0.0115879     	(1.013845e+02 3.300225e+02 -8.828588e-16)	(1.005048e+02 3.302015e+02 -8.829245e-16)	(8.796831e-01 -1.789836e-01 6.574671e-20)
0.0116617     	(1.012465e+02 3.291970e+02 -9.020176e-16)	(1.003677e+02 3.293754e+02 -9.020931e-16)	(8.788189e-01 -1.783703e-01 7.550647e-20)
0.0117354     	(1.008258e+02 3.280036e+02 -9.193269e-16)	(9.994788e+01 3.281814e+02 -9.194107e-16)	(8.779727e-01 -1.777516e-01 8.373954e-20)
0.0118091     	(1.005676e+02 3.266984e+02 -9.266475e-16)	(9.969039e+01 3.268756e+02 -9.267388e-16)	(8.771856e-01 -1.771974e-01 9.125904e-20)
0.0118829     	(1.000716e+02 3.247150e+02 -9.315613e-16)	(9.919498e+01 3.248917e+02 -9.316587e-16)	(8.765909e-01 -1.766947e-01 9.736588e-20)
0.0119566     	(9.971668e+01 3.232138e+02 -9.361890e-16)	(9.884074e+01 3.233900e+02 -9.362909e-16)	(8.759416e-01 -1.762018e-01 1.018864e-19)
0.0120304     	(9.920848e+01 3.216828e+02 -9.378500e-16)	(9.833322e+01 3.218586e+02 -9.379544e-16)	(8.752613e-01 -1.757560e-01 1.043297e-19)
0.0121042     	(9.882203e+01 3.200248e+02 -9.310913e-16)	(9.794748e+01 3.202002e+02 -9.311968e-16)	(8.745512e-01 -1.753466e-01 1.055019e-19)
0.0121781     	(9.848548e+01 3.184667e+02 -9.232752e-16)	(9.761166e+01 3.186417e+02 -9.233803e-16)	(8.738234e-01 -1.749507e-01 1.051049e-19)
0.012252      	(9.805059e+01 3.167521e+02 -9.128430e-16)	(9.717751e+01 3.169267e+02 -9.129461e-16)	(8.730812e-01 -1.745555e-01 1.030745e-19)
0.012326      	(9.756737e+01 3.151143e+02 -9.039977e-16)	(9.669503e+01 3.152884e+02 -9.040974e-16)	(8.723443e-01 -1.741489e-01 9.975014e-20)
0.0124        	(9.736932e+01 3.140048e+02 -8.903549e-16)	(9.649772e+01 3.141785e+02 -8.904506e-16)	(8.715969e-01 -1.737148e-01 9.562774e-20)
0.0124741     	(9.714496e+01 3.128187e+02 -8.740200e-16)	(9.627412e+01 3.129920e+02 -8.741113e-16)	(8.708395e-01 -1.733061e-01 9.125266e-20)
0.0125484     	(9.703187e+01 3.120785e+02 -8.587152e-16)	(9.616182e+01 3.122513e+02 -8.588021e-16)	(8.700515e-01 -1.728748e-01 8.693455e-20)
0.0126227     	(9.700281e+01 3.118801e+02 -8.419210e-16)	(9.613360e+01 3.120525e+02 -8.420044e-16)	(8.692152e-01 -1.724107e-01 8.342407e-20)
0.0126971     	(9.725318e+01 3.122670e+02 -8.295206e-16)	(9.638486e+01 3.124390e+02 -8.296010e-16)	(8.683199e-01 -1.719135e-01 8.039228e-20)
0.0127717     	(9.743836e+01 3.124855e+02 -8.152636e-16)	(9.657100e+01 3.126569e+02 -8.153419e-16)	(8.673642e-01 -1.713886e-01 7.826707e-20)
0.0128463     	(9.757803e+01 3.126092e+02 -8.006369e-16)	(9.671168e+01 3.127800e+02 -8.007138e-16)	(8.663454e-01 -1.708412e-01 7.693309e-20)
0.0129212     	(9.803717e+01 3.138649e+02 -7.897020e-16)	(9.717194e+01 3.140352e+02 -7.897786e-16)	(8.652258e-01 -1.702434e-01 7.653687e-20)
0.0129961     	(9.754766e+01 3.120960e+02 -7.770914e-16)	(9.668360e+01 3.122655e+02 -7.771680e-16)	(8.640642e-01 -1.695582e-01 7.652204e-20)
0.0130712     	(9.779194e+01 3.126771e+02 -7.686817e-16)	(9.692910e+01 3.128460e+02 -7.687585e-16)	(8.628409e-01 -1.688461e-01 7.676845e-20)
0.0131464     	(9.772316e+01 3.120560e+02 -7.589983e-16)	(9.686162e+01 3.122241e+02 -7.590753e-16)	(8.615423e-01 -1.681065e-01 7.705431e-20)
0.0132217     	(9.814596e+01 3.131787e+02 -7.525129e-16)	(9.728580e+01 3.133460e+02 -7.525901e-16)	(8.601534e-01 -1.673421e-01 7.719120e-20)
0.0132971     	(9.858371e+01 3.144262e+02 -7.455398e-16)	(9.772504e+01 3.145927e+02 -7.456168e-16)	(8.586750e-01 -1.665459e-01 7.702421e-20)
0.0133725     	(9.920473e+01 3.161886e+02 -7.398133e-16)	(9.834762e+01 3.163543e+02 -7.398897e-16)	(8.571124e-01 -1.657220e-01 7.635297e-20)
0.0134479     	(9.977457e+01 3.174089e+02 -7.332246e-16)	(9.891907e+01 3.175738e+02 -7.332997e-16)	(8.555013e-01 -1.648835e-01 7.515561e-20)
0.0135233     	(1.005006e+02 3.190997e+02 -7.280002e-16)	(9.964679e+01 3.192638e+02 -7.280735e-16)	(8.538059e-01 -1.640592e-01 7.331892e-20)
0.0135988     	(1.011807e+02 3.210039e+02 -7.210909e-16)	(1.003287e+02 3.211671e+02 -7.211618e-16)	(8.520386e-01 -1.632270e-01 7.088818e-20)
0.0136743     	(1.020007e+02 3.234557e+02 -7.143823e-16)	(1.011505e+02 3.236181e+02 -7.144501e-16)	(8.501847e-01 -1.623777e-01 6.771567e-20)
0.0137499     	(1.028366e+02 3.257045e+02 -7.062229e-16)	(1.019883e+02 3.258660e+02 -7.062865e-16)	(8.482575e-01 -1.615136e-01 6.366456e-20)
0.0138255     	(1.037142e+02 3.278395e+02 -6.968931e-16)	(1.028680e+02 3.280001e+02 -6.969519e-16)	(8.462507e-01 -1.606542e-01 5.876755e-20)
0.0139012     	(1.046490e+02 3.302210e+02 -6.882937e-16)	(1.038049e+02 3.303808e+02 -6.883468e-16)	(8.441505e-01 -1.598039e-01 5.315285e-20)
0.0139768     	(1.056434e+02 3.331818e+02 -6.791602e-16)	(1.048015e+02 3.333407e+02 -6.792072e-16)	(8.419492e-01 -1.589565e-01 4.699265e-20)
0.0140523     	(1.065811e+02 3.359191e+02 -6.691421e-16)	(1.057415e+02 3.360772e+02 -6.691826e-16)	(8.396560e-01 -1.581144e-01 4.050697e-20)
0.0141279     	(1.075653e+02 3.383943e+02 -6.581255e-16)	(1.067280e+02 3.385516e+02 -6.581595e-16)	(8.372608e-01 -1.572597e-01 3.398237e-20)
0.0142035     	(1.086669e+02 3.410447e+02 -6.462294e-16)	(1.078321e+02 3.412011e+02 -6.462570e-16)	(8.347473e-01 -1.564193e-01 2.759188e-20)
0.014279      	(1.097466e+02 3.439554e+02 -6.342464e-16)	(1.089145e+02 3.441110e+02 -6.342678e-16)	(8.320970e-01 -1.555752e-01 2.140960e-20)
0.0143545     	(1.108445e+02 3.471571e+02 -6.225298e-16)	(1.100152e+02 3.473118e+02 -6.225454e-16)	(8.292926e-01 -1.547140e-01 1.559877e-20)
0.01443       	(1.120235e+02 3.504089e+02 -6.118564e-16)	(1.111972e+02 3.505627e+02 -6.118667e-16)	(8.263547e-01 -1.538148e-01 1.022517e-20)
0.0145055     	(1.132126e+02 3.536521e+02 -6.027785e-16)	(1.123893e+02 3.538049e+02 -6.027838e-16)	(8.233254e-01 -1.528761e-01 5.253782e-21)
0.014581      	(1.142900e+02 3.564675e+02 -5.940154e-16)	(1.134698e+02 3.566194e+02 -5.940160e-16)	(8.201815e-01 -1.519208e-01 5.993264e-22)
0.0146564     	(1.156275e+02 3.598051e+02 -5.885180e-16)	(1.148105e+02 3.599561e+02 -5.885141e-16)	(8.169493e-01 -1.509306e-01 -3.928664e-21)
0.0147319     	(1.169782e+02 3.632044e+02 -5.842505e-16)	(1.161646e+02 3.633543e+02 -5.842421e-16)	(8.136442e-01 -1.498987e-01 -8.335479e-21)
0.0148073     	(1.182778e+02 3.665769e+02 -5.815023e-16)	(1.174675e+02 3.667257e+02 -5.814897e-16)	(8.102755e-01 -1.488264e-01 -1.256534e-20)
0.0148829     	(1.195149e+02 3.696093e+02 -5.806104e-16)	(1.187081e+02 3.697570e+02 -5.805940e-16)	(8.068240e-01 -1.477056e-01 -1.648228e-20)
0.0149584     	(1.207448e+02 3.723970e+02 -5.831201e-16)	(1.199415e+02 3.725436e+02 -5.831001e-16)	(8.033170e-01 -1.465728e-01 -1.998382e-20)
0.0150339     	(1.219697e+02 3.752568e+02 -5.891793e-16)	(1.211699e+02 3.754022e+02 -5.891561e-16)	(7.997407e-01 -1.454082e-01 -2.315641e-20)
0.0151094     	(1.231836e+02 3.786083e+02 -5.957652e-16)	(1.223875e+02 3.787525e+02 -5.957393e-16)	(7.960937e-01 -1.442065e-01 -2.586158e-20)
0.015185      	(1.243456e+02 3.817323e+02 -6.039377e-16)	(1.235532e+02 3.818753e+02 -6.039098e-16)	(7.924026e-01 -1.429945e-01 -2.796635e-20)
0.0152606     	(1.253781e+02 3.843199e+02 -6.151444e-16)	(1.245894e+02 3.844617e+02 -6.151150e-16)	(7.886861e-01 -1.417216e-01 -2.942658e-20)