# Moment      
# CofR        : (5.000000e+00 5.000000e-03 0.000000e+00)
#
# Time        	(total_x total_y total_z)	(pressure_x pressure_y pressure_z)	(viscous_x viscous_y viscous_z)
1.20005e-05   	(-6.688105e+03 3.277392e+03 -6.606685e+05)	(-6.688107e+03 3.277352e+03 -6.606687e+05)	(2.682319e-03 4.009417e-02 2.793851e-01)
2.64017e-05   	(-1.806994e+02 9.821625e+01 -1.786608e+04)	(-1.807031e+02 9.817682e+01 -1.786647e+04)	(3.721843e-03 3.942426e-02 3.819950e-01)
4.36833e-05   	(-3.342488e+01 1.951911e+01 -3.302383e+03)	(-3.342907e+01 1.947976e+01 -3.302811e+03)	(4.187160e-03 3.935675e-02 4.279082e-01)
6.44211e-05   	(-1.584439e+01 6.988391e+00 -1.569282e+03)	(-1.584879e+01 6.948976e+00 -1.569732e+03)	(4.406245e-03 3.941567e-02 4.495140e-01)
8.93055e-05   	(-1.188562e+01 3.601867e+00 -1.179770e+03)	(-1.189017e+01 3.562359e+00 -1.180234e+03)	(4.550481e-03 3.950784e-02 4.637226e-01)
0.000119165   	(-1.188325e+01 3.370834e+00 -1.179569e+03)	(-1.188791e+01 3.331193e+00 -1.180043e+03)	(4.660037e-03 3.964104e-02 4.745108e-01)
0.00015499    	(-1.223899e+01 4.031254e+00 -1.214053e+03)	(-1.224374e+01 3.991419e+00 -1.214536e+03)	(4.749753e-03 3.983594e-02 4.833453e-01)
0.000197972   	(-1.280332e+01 4.735606e+00 -1.269386e+03)	(-1.280815e+01 4.695507e+00 -1.269877e+03)	(4.821720e-03 4.009826e-02 4.904269e-01)
0.000249549   	(-1.324593e+01 5.152319e+00 -1.313047e+03)	(-1.325081e+01 5.111901e+00 -1.313543e+03)	(4.880047e-03 4.041803e-02 4.961667e-01)
0.000310151   	(-1.309266e+01 5.214124e+00 -1.298028e+03)	(-1.309759e+01 5.173373e+00 -1.298529e+03)	(4.930870e-03 4.075140e-02 5.011771e-01)
0.000379718   	(-1.313431e+01 5.270745e+00 -1.302341e+03)	(-1.313931e+01 5.229671e+00 -1.302849e+03)	(4.994971e-03 4.107450e-02 5.075339e-01)
0.000458221   	(-1.401659e+01 5.617138e+00 -1.389690e+03)	(-1.402171e+01 5.575762e+00 -1.390209e+03)	(5.115012e-03 4.137594e-02 5.194881e-01)
0.000545462   	(-1.474536e+01 5.868934e+00 -1.461841e+03)	(-1.475068e+01 5.827267e+00 -1.462381e+03)	(5.315038e-03 4.166736e-02 5.394350e-01)
0.000627655   	(-1.419045e+01 5.655801e+00 -1.407193e+03)	(-1.419601e+01 5.613926e+00 -1.407757e+03)	(5.561755e-03 4.187499e-02 5.640388e-01)
0.000705229   	(-1.386777e+01 5.450678e+00 -1.375621e+03)	(-1.387361e+01 5.408647e+00 -1.376213e+03)	(5.836572e-03 4.203107e-02 5.914473e-01)
0.000779385   	(-1.349536e+01 5.232737e+00 -1.339138e+03)	(-1.350149e+01 5.190596e+00 -1.339759e+03)	(6.127614e-03 4.214120e-02 6.204718e-01)
0.000851389   	(-1.297101e+01 5.014104e+00 -1.287453e+03)	(-1.297744e+01 4.971883e+00 -1.288103e+03)	(6.432681e-03 4.222121e-02 6.508915e-01)
0.000921757   	(-1.262668e+01 4.839296e+00 -1.253543e+03)	(-1.263343e+01 4.797012e+00 -1.254226e+03)	(6.747396e-03 4.228400e-02 6.822679e-01)
0.000991285   	(-1.238200e+01 4.644856e+00 -1.229606e+03)	(-1.238908e+01 4.602515e+00 -1.230322e+03)	(7.079678e-03 4.234112e-02 7.153816e-01)
0.00106062    	(-1.217870e+01 4.423758e+00 -1.209797e+03)	(-1.218614e+01 4.381353e+00 -1.210548e+03)	(7.439942e-03 4.240562e-02 7.512595e-01)
0.00113005    	(-1.204941e+01 4.168844e+00 -1.197285e+03)	(-1.205727e+01 4.126347e+00 -1.198078e+03)	(7.861615e-03 4.249706e-02 7.932071e-01)
0.00120002    	(-1.210887e+01 3.836630e+00 -1.203481e+03)	(-1.211721e+01 3.794004e+00 -1.204322e+03)	(8.342269e-03 4.262551e-02 8.409845e-01)
0.00127095    	(-1.333925e+01 3.391716e+00 -1.325952e+03)	(-1.334803e+01 3.348947e+00 -1.326836e+03)	(8.776405e-03 4.276904e-02 8.841412e-01)
0.00134317    	(-1.614654e+01 2.744030e+00 -1.605337e+03)	(-1.615564e+01 2.701177e+00 -1.606253e+03)	(9.102357e-03 4.285372e-02 9.165451e-01)
0.0014168     	(-1.358306e+01 1.132154e+00 -1.353372e+03)	(-1.359243e+01 1.089204e+00 -1.354315e+03)	(9.365864e-03 4.295009e-02 9.427647e-01)
0.00149097    	(-4.861723e+00 -2.855218e+00 -4.936705e+02)	(-4.871241e+00 -2.898286e+00 -4.946284e+02)	(9.517642e-03 4.306776e-02 9.579429e-01)
0.00156499    	(3.274114e+00 -7.772864e+00 3.067980e+02)	(3.264646e+00 -7.815957e+00 3.058448e+02)	(9.468400e-03 4.309379e-02 9.531958e-01)
0.00163916    	(-2.320604e+00 -3.076679e+00 -2.411524e+02)	(-2.330095e+00 -3.119917e+00 -2.421079e+02)	(9.490908e-03 4.323820e-02 9.555738e-01)
0.00171351    	(-8.527829e+00 1.379994e+00 -8.506361e+02)	(-8.537429e+00 1.336543e+00 -8.516027e+02)	(9.599850e-03 4.345104e-02 9.665151e-01)
0.00178791    	(-1.001657e+01 2.311498e+00 -9.970061e+02)	(-1.002630e+01 2.267868e+00 -9.979856e+02)	(9.729361e-03 4.363062e-02 9.794857e-01)
0.00186243    	(-1.020056e+01 2.382652e+00 -1.015159e+03)	(-1.021042e+01 2.338841e+00 -1.016152e+03)	(9.856478e-03 4.381112e-02 9.922158e-01)
0.00193706    	(-1.021611e+01 2.405152e+00 -1.016643e+03)	(-1.022609e+01 2.361169e+00 -1.017648e+03)	(9.980701e-03 4.398232e-02 1.004657e+00)
0.00201197    	(-1.025843e+01 2.400274e+00 -1.020827e+03)	(-1.026853e+01 2.356120e+00 -1.021844e+03)	(1.010539e-02 4.415413e-02 1.017145e+00)
0.00208695    	(-1.031737e+01 2.417902e+00 -1.026622e+03)	(-1.032759e+01 2.373605e+00 -1.027651e+03)	(1.021832e-02 4.429630e-02 1.028463e+00)
0.00216226    	(-1.036968e+01 2.427233e+00 -1.031794e+03)	(-1.038001e+01 2.382795e+00 -1.032834e+03)	(1.033013e-02 4.443769e-02 1.039669e+00)
0.00223758    	(-1.045660e+01 2.461817e+00 -1.040367e+03)	(-1.046703e+01 2.417248e+00 -1.041417e+03)	(1.043815e-02 4.456841e-02 1.050498e+00)
0.00231301    	(-1.055740e+01 2.506498e+00 -1.050309e+03)	(-1.056795e+01 2.461788e+00 -1.051370e+03)	(1.055040e-02 4.470985e-02 1.061750e+00)
0.00238839    	(-1.068531e+01 2.565569e+00 -1.062927e+03)	(-1.069596e+01 2.520762e+00 -1.063998e+03)	(1.064348e-02 4.480672e-02 1.071091e+00)
0.00246348    	(-1.081685e+01 2.626554e+00 -1.075905e+03)	(-1.082758e+01 2.581658e+00 -1.076984e+03)	(1.073122e-02 4.489610e-02 1.079898e+00)
0.00253827    	(-1.089215e+01 2.670901e+00 -1.083332e+03)	(-1.090296e+01 2.625922e+00 -1.084421e+03)	(1.081681e-02 4.497901e-02 1.088492e+00)
0.00261313    	(-1.099356e+01 2.709986e+00 -1.093349e+03)	(-1.100446e+01 2.664921e+00 -1.094447e+03)	(1.090580e-02 4.506471e-02 1.097424e+00)
0.00268764    	(-1.106804e+01 2.744682e+00 -1.100698e+03)	(-1.107903e+01 2.699530e+00 -1.101803e+03)	(1.098873e-02 4.515138e-02 1.105751e+00)
0.00276244    	(-1.115619e+01 2.785600e+00 -1.109403e+03)	(-1.116726e+01 2.740354e+00 -1.110517e+03)	(1.107410e-02 4.524550e-02 1.114320e+00)
0.00283695    	(-1.121718e+01 2.808960e+00 -1.115429e+03)	(-1.122831e+01 2.763685e+00 -1.116550e+03)	(1.113052e-02 4.527534e-02 1.120007e+00)
0.00291163    	(-1.128015e+01 2.826542e+00 -1.121653e+03)	(-1.129139e+01 2.781114e+00 -1.122784e+03)	(1.123879e-02 4.542839e-02 1.130854e+00)
0.00298638    	(-1.132857e+01 2.848407e+00 -1.126432e+03)	(-1.133988e+01 2.802918e+00 -1.127570e+03)	(1.131152e-02 4.548837e-02 1.138166e+00)
0.00306112    	(-1.135570e+01 2.855989e+00 -1.129114e+03)	(-1.136706e+01 2.810465e+00 -1.130257e+03)	(1.136149e-02 4.552487e-02 1.143207e+00)
0.0031362     	(-1.137917e+01 2.856823e+00 -1.131442e+03)	(-1.139059e+01 2.811246e+00 -1.132590e+03)	(1.141627e-02 4.557716e-02 1.148729e+00)
0.00321112    	(-1.141280e+01 2.867111e+00 -1.134765e+03)	(-1.142427e+01 2.821497e+00 -1.135919e+03)	(1.146266e-02 4.561354e-02 1.153415e+00)
0.00328638    	(-1.141503e+01 2.864154e+00 -1.134982e+03)	(-1.142658e+01 2.818418e+00 -1.136144e+03)	(1.154759e-02 4.573632e-02 1.161938e+00)
0.00336165    	(-1.143470e+01 2.865691e+00 -1.136930e+03)	(-1.144630e+01 2.819900e+00 -1.138097e+03)	(1.160366e-02 4.579076e-02 1.167590e+00)
0.00343703    	(-1.146491e+01 2.869626e+00 -1.139919e+03)	(-1.147656e+01 2.823783e+00 -1.141092e+03)	(1.165563e-02 4.584301e-02 1.172832e+00)
0.00351276    	(-1.147890e+01 2.874168e+00 -1.141307e+03)	(-1.149061e+01 2.828261e+00 -1.142485e+03)	(1.170444e-02 4.590645e-02 1.177760e+00)
0.0035885     	(-1.151034e+01 2.882266e+00 -1.144420e+03)	(-1.152208e+01 2.836307e+00 -1.145602e+03)	(1.174605e-02 4.595834e-02 1.181971e+00)
0.00366477    	(-1.152635e+01 2.882840e+00 -1.146009e+03)	(-1.153814e+01 2.836822e+00 -1.147196e+03)	(1.179110e-02 4.601791e-02 1.186526e+00)
0.00374184    	(-1.153919e+01 2.884348e+00 -1.147287e+03)	(-1.155105e+01 2.838231e+00 -1.148479e+03)	(1.185384e-02 4.611772e-02 1.192841e+00)
0.00381903    	(-1.158278e+01 2.896847e+00 -1.151600e+03)	(-1.159468e+01 2.850665e+00 -1.152798e+03)	(1.190309e-02 4.618210e-02 1.197816e+00)
0.00389635    	(-1.161004e+01 2.900212e+00 -1.154306e+03)	(-1.162199e+01 2.853965e+00 -1.155508e+03)	(1.195096e-02 4.624790e-02 1.202652e+00)
0.00397379    	(-1.164490e+01 2.908516e+00 -1.157758e+03)	(-1.165689e+01 2.862205e+00 -1.158965e+03)	(1.198917e-02 4.631096e-02 1.206525e+00)
0.00405129    	(-1.169391e+01 2.924758e+00 -1.162605e+03)	(-1.170594e+01 2.878383e+00 -1.163815e+03)	(1.202494e-02 4.637543e-02 1.210157e+00)
0.00412886    	(-1.175046e+01 2.944059e+00 -1.168199e+03)	(-1.176252e+01 2.897620e+00 -1.169412e+03)	(1.206093e-02 4.643871e-02 1.213810e+00)
0.00420574    	(-1.179848e+01 2.962011e+00 -1.172946e+03)	(-1.181057e+01 2.915508e+00 -1.174163e+03)	(1.209523e-02 4.650309e-02 1.217293e+00)
0.00428153    	(-1.185877e+01 2.979281e+00 -1.178911e+03)	(-1.187091e+01 2.932710e+00 -1.180133e+03)	(1.213918e-02 4.657037e-02 1.221739e+00)
0.00435654    	(-1.191868e+01 3.006696e+00 -1.184829e+03)	(-1.193086e+01 2.960052e+00 -1.186054e+03)	(1.217670e-02 4.664432e-02 1.225542e+00)
0.00443097    	(-1.198352e+01 3.032375e+00 -1.191237e+03)	(-1.199573e+01 2.985665e+00 -1.192466e+03)	(1.220893e-02 4.670930e-02 1.228817e+00)
0.00450494    	(-1.203134e+01 3.047237e+00 -1.195969e+03)	(-1.204359e+01 3.000448e+00 -1.197202e+03)	(1.225050e-02 4.678833e-02 1.233025e+00)
0.00457857    	(-1.210083e+01 3.076122e+00 -1.202831e+03)	(-1.211310e+01 3.029272e+00 -1.204067e+03)	(1.227736e-02 4.684994e-02 1.235765e+00)
0.00465197    	(-1.215390e+01 3.099085e+00 -1.208074e+03)	(-1.216620e+01 3.052179e+00 -1.209312e+03)	(1.230244e-02 4.690637e-02 1.238327e+00)
0.00472526    	(-1.218416e+01 3.109032e+00 -1.211069e+03)	(-1.219649e+01 3.062071e+00 -1.212309e+03)	(1.232519e-02 4.696091e-02 1.240657e+00)
0.00479855    	(-1.223343e+01 3.129574e+00 -1.215931e+03)	(-1.224577e+01 3.082563e+00 -1.217174e+03)	(1.234677e-02 4.701091e-02 1.242872e+00)
0.00487195    	(-1.229002e+01 3.154284e+00 -1.221513e+03)	(-1.230239e+01 3.107229e+00 -1.222758e+03)	(1.236476e-02 4.705518e-02 1.244729e+00)
0.00494552    	(-1.233568e+01 3.176836e+00 -1.226008e+03)	(-1.234806e+01 3.129740e+00 -1.227255e+03)	(1.238259e-02 4.709543e-02 1.246570e+00)
0.00501943    	(-1.237215e+01 3.188132e+00 -1.229612e+03)	(-1.238455e+01 3.141007e+00 -1.230861e+03)	(1.240658e-02 4.712542e-02 1.249027e+00)
0.0050937     	(-1.240655e+01 3.199931e+00 -1.233010e+03)	(-1.241896e+01 3.152771e+00 -1.234260e+03)	(1.241692e-02 4.716002e-02 1.250123e+00)
0.00516842    	(-1.245760e+01 3.219528e+00 -1.238048e+03)	(-1.247004e+01 3.172328e+00 -1.239301e+03)	(1.244477e-02 4.719933e-02 1.252966e+00)
0.00524363    	(-1.248683e+01 3.226871e+00 -1.240940e+03)	(-1.249928e+01 3.179649e+00 -1.242194e+03)	(1.244784e-02 4.722174e-02 1.253337e+00)
0.00531937    	(-1.253165e+01 3.238961e+00 -1.245372e+03)	(-1.254410e+01 3.191720e+00 -1.246626e+03)	(1.244887e-02 4.724112e-02 1.253505e+00)
0.00539567    	(-1.258117e+01 3.254891e+00 -1.250266e+03)	(-1.259361e+01 3.207635e+00 -1.251519e+03)	(1.244604e-02 4.725656e-02 1.253291e+00)
0.00547258    	(-1.263118e+01 3.271148e+00 -1.255208e+03)	(-1.264363e+01 3.223880e+00 -1.256461e+03)	(1.244400e-02 4.726863e-02 1.253155e+00)
0.005549      	(-1.267780e+01 3.283845e+00 -1.259819e+03)	(-1.269024e+01 3.236567e+00 -1.261072e+03)	(1.244104e-02 4.727840e-02 1.252927e+00)
0.00562498    	(-1.271643e+01 3.293969e+00 -1.263643e+03)	(-1.272887e+01 3.246683e+00 -1.264895e+03)	(1.243650e-02 4.728624e-02 1.252541e+00)
0.0057006     	(-1.275968e+01 3.312273e+00 -1.267912e+03)	(-1.277212e+01 3.264986e+00 -1.269165e+03)	(1.244003e-02 4.728635e-02 1.252962e+00)
0.00577592    	(-1.279567e+01 3.321471e+00 -1.271473e+03)	(-1.280810e+01 3.274179e+00 -1.272725e+03)	(1.243210e-02 4.729153e-02 1.252238e+00)
0.00585094    	(-1.284978e+01 3.343432e+00 -1.276811e+03)	(-1.286220e+01 3.296137e+00 -1.278062e+03)	(1.242324e-02 4.729489e-02 1.251421e+00)
0.00592566    	(-1.290678e+01 3.366193e+00 -1.282433e+03)	(-1.291919e+01 3.318897e+00 -1.283683e+03)	(1.241094e-02 4.729595e-02 1.250262e+00)
0.00600015    	(-1.295487e+01 3.386304e+00 -1.287173e+03)	(-1.296728e+01 3.339004e+00 -1.288423e+03)	(1.240832e-02 4.730045e-02 1.250067e+00)
0.00607446    	(-1.300511e+01 3.405731e+00 -1.292128e+03)	(-1.301750e+01 3.358437e+00 -1.293377e+03)	(1.239260e-02 4.729472e-02 1.248566e+00)
0.00614859    	(-1.305245e+01 3.423137e+00 -1.296800e+03)	(-1.306482e+01 3.375852e+00 -1.298046e+03)	(1.237433e-02 4.728484e-02 1.246811e+00)
0.00622249    	(-1.310112e+01 3.447748e+00 -1.301589e+03)	(-1.311347e+01 3.400476e+00 -1.302834e+03)	(1.235371e-02 4.727253e-02 1.244823e+00)
0.00629621    	(-1.315328e+01 3.467866e+00 -1.306733e+03)	(-1.316562e+01 3.420607e+00 -1.307977e+03)	(1.234179e-02 4.725885e-02 1.243702e+00)
0.00636982    	(-1.321496e+01 3.491933e+00 -1.312819e+03)	(-1.322728e+01 3.444689e+00 -1.314060e+03)	(1.231564e-02 4.724377e-02 1.241162e+00)
0.00644331    	(-1.326848e+01 3.518000e+00 -1.318087e+03)	(-1.328077e+01 3.470773e+00 -1.319326e+03)	(1.228959e-02 4.722663e-02 1.238632e+00)
0.00651675    	(-1.331949e+01 3.537693e+00 -1.323119e+03)	(-1.333175e+01 3.490486e+00 -1.324356e+03)	(1.226351e-02 4.720709e-02 1.236100e+00)
0.00659019    	(-1.337740e+01 3.557485e+00 -1.328840e+03)	(-1.338964e+01 3.510302e+00 -1.330073e+03)	(1.223560e-02 4.718273e-02 1.233383e+00)
0.00666356    	(-1.344466e+01 3.584013e+00 -1.335474e+03)	(-1.345687e+01 3.536855e+00 -1.336704e+03)	(1.220598e-02 4.715804e-02 1.230499e+00)
0.00673694    	(-1.351091e+01 3.615997e+00 -1.341993e+03)	(-1.352308e+01 3.568867e+00 -1.343220e+03)	(1.217428e-02 4.713047e-02 1.227408e+00)
0.00681032    	(-1.356301e+01 3.630121e+00 -1.347143e+03)	(-1.357516e+01 3.583017e+00 -1.348368e+03)	(1.214963e-02 4.710365e-02 1.225019e+00)
0.00688375    	(-1.362243e+01 3.658074e+00 -1.352992e+03)	(-1.363456e+01 3.611003e+00 -1.354214e+03)	(1.212501e-02 4.707066e-02 1.222634e+00)
0.00695719    	(-1.369737e+01 3.693768e+00 -1.360365e+03)	(-1.370945e+01 3.646728e+00 -1.361584e+03)	(1.208508e-02 4.704013e-02 1.218723e+00)
0.00703068    	(-1.375241e+01 3.717896e+00 -1.365785e+03)	(-1.376445e+01 3.670886e+00 -1.366999e+03)	(1.204371e-02 4.700975e-02 1.214670e+00)
0.00710423    	(-1.379894e+01 3.733631e+00 -1.370377e+03)	(-1.381095e+01 3.686652e+00 -1.371588e+03)	(1.200293e-02 4.697887e-02 1.210673e+00)
0.00717784    	(-1.386699e+01 3.759689e+00 -1.377083e+03)	(-1.387895e+01 3.712743e+00 -1.378290e+03)	(1.196030e-02 4.694647e-02 1.206494e+00)
0.00725151    	(-1.392892e+01 3.792626e+00 -1.383171e+03)	(-1.394084e+01 3.745712e+00 -1.384373e+03)	(1.191618e-02 4.691465e-02 1.202167e+00)
0.00732524    	(-1.399629e+01 3.818481e+00 -1.389811e+03)	(-1.400816e+01 3.771598e+00 -1.391009e+03)	(1.187265e-02 4.688271e-02 1.197899e+00)
0.00739908    	(-1.405530e+01 3.845499e+00 -1.395617e+03)	(-1.406713e+01 3.798644e+00 -1.396811e+03)	(1.183339e-02 4.685468e-02 1.194057e+00)
0.00747299    	(-1.412774e+01 3.877528e+00 -1.402748e+03)	(-1.413952e+01 3.830712e+00 -1.403937e+03)	(1.178430e-02 4.681600e-02 1.189236e+00)
0.00754701    	(-1.420603e+01 3.911710e+00 -1.410458e+03)	(-1.421777e+01 3.864932e+00 -1.411642e+03)	(1.173457e-02 4.677797e-02 1.184352e+00)
0.00762115    	(-1.426655e+01 3.932539e+00 -1.416425e+03)	(-1.427823e+01 3.885799e+00 -1.417605e+03)	(1.168573e-02 4.674005e-02 1.179554e+00)
0.00769541    	(-1.433644e+01 3.968863e+00 -1.423292e+03)	(-1.434808e+01 3.922164e+00 -1.424467e+03)	(1.163507e-02 4.669952e-02 1.174576e+00)
0.00776979    	(-1.442317e+01 4.009129e+00 -1.431825e+03)	(-1.443476e+01 3.962470e+00 -1.432994e+03)	(1.158467e-02 4.665851e-02 1.169624e+00)
0.00784429    	(-1.449164e+01 4.033129e+00 -1.438575e+03)	(-1.450317e+01 3.986508e+00 -1.439740e+03)	(1.153297e-02 4.662053e-02 1.164543e+00)
0.00791891    	(-1.456695e+01 4.066942e+00 -1.445985e+03)	(-1.457844e+01 4.020355e+00 -1.447145e+03)	(1.148773e-02 4.658722e-02 1.160106e+00)
0.00799365    	(-1.464847e+01 4.109110e+00 -1.453996e+03)	(-1.465990e+01 4.062566e+00 -1.455151e+03)	(1.143328e-02 4.654370e-02 1.154750e+00)
0.00806851    	(-1.472275e+01 4.138489e+00 -1.461313e+03)	(-1.473413e+01 4.091990e+00 -1.462462e+03)	(1.137733e-02 4.649939e-02 1.149244e+00)
0.0081435     	(-1.477274e+01 4.151503e+00 -1.466248e+03)	(-1.478406e+01 4.105043e+00 -1.467392e+03)	(1.131994e-02 4.645967e-02 1.143597e+00)
0.0082186     	(-1.485602e+01 4.197652e+00 -1.474424e+03)	(-1.486728e+01 4.151233e+00 -1.475562e+03)	(1.126425e-02 4.641836e-02 1.138119e+00)
0.0082939     	(-1.493458e+01 4.233992e+00 -1.482154e+03)	(-1.494579e+01 4.187618e+00 -1.483287e+03)	(1.120834e-02 4.637367e-02 1.132617e+00)
0.00836937    	(-1.499180e+01 4.254092e+00 -1.487797e+03)	(-1.500295e+01 4.207762e+00 -1.488924e+03)	(1.115177e-02 4.632959e-02 1.127050e+00)
0.00844498    	(-1.505372e+01 4.277401e+00 -1.493900e+03)	(-1.506482e+01 4.231111e+00 -1.495022e+03)	(1.110113e-02 4.629018e-02 1.122076e+00)
0.00852077    	(-1.513488e+01 4.325123e+00 -1.501866e+03)	(-1.514592e+01 4.278882e+00 -1.502982e+03)	(1.104152e-02 4.624114e-02 1.116205e+00)
0.0085965     	(-1.520256e+01 4.351855e+00 -1.508536e+03)	(-1.521354e+01 4.305665e+00 -1.509646e+03)	(1.098163e-02 4.618993e-02 1.110306e+00)
0.00867216    	(-1.525264e+01 4.366817e+00 -1.513480e+03)	(-1.526356e+01 4.320680e+00 -1.514584e+03)	(1.092247e-02 4.613777e-02 1.104481e+00)
0.00874776    	(-1.533824e+01 4.412437e+00 -1.521888e+03)	(-1.534911e+01 4.366356e+00 -1.522987e+03)	(1.086574e-02 4.608127e-02 1.098897e+00)
0.0088233     	(-1.539463e+01 4.441694e+00 -1.527427e+03)	(-1.540544e+01 4.395672e+00 -1.528521e+03)	(1.080977e-02 4.602173e-02 1.093389e+00)
0.00889878    	(-1.545036e+01 4.461756e+00 -1.532920e+03)	(-1.546112e+01 4.415815e+00 -1.534008e+03)	(1.076100e-02 4.594088e-02 1.088597e+00)
0.00897426    	(-1.550213e+01 4.481025e+00 -1.538020e+03)	(-1.551284e+01 4.435143e+00 -1.539104e+03)	(1.071362e-02 4.588262e-02 1.083947e+00)
0.00904967    	(-1.557930e+01 4.522897e+00 -1.545598e+03)	(-1.558995e+01 4.477074e+00 -1.546676e+03)	(1.065308e-02 4.582326e-02 1.077981e+00)
0.00912509    	(-1.562967e+01 4.549050e+00 -1.550546e+03)	(-1.564027e+01 4.503287e+00 -1.551618e+03)	(1.059178e-02 4.576321e-02 1.071940e+00)
0.0092005     	(-1.568311e+01 4.564859e+00 -1.555821e+03)	(-1.569364e+01 4.519153e+00 -1.556887e+03)	(1.052993e-02 4.570601e-02 1.065844e+00)
0.00927592    	(-1.575471e+01 4.604829e+00 -1.562849e+03)	(-1.576518e+01 4.559178e+00 -1.563909e+03)	(1.046837e-02 4.565091e-02 1.059776e+00)
0.00935133    	(-1.581750e+01 4.632124e+00 -1.569031e+03)	(-1.582791e+01 4.586529e+00 -1.570085e+03)	(1.040712e-02 4.559465e-02 1.053737e+00)
0.00942675    	(-1.585959e+01 4.656242e+00 -1.573161e+03)	(-1.586994e+01 4.610708e+00 -1.574209e+03)	(1.034762e-02 4.553339e-02 1.047872e+00)
0.0095021     	(-1.589119e+01 4.666096e+00 -1.576282e+03)	(-1.590148e+01 4.620622e+00 -1.577324e+03)	(1.028821e-02 4.547430e-02 1.042017e+00)
0.00957733    	(-1.594036e+01 4.699142e+00 -1.581098e+03)	(-1.595060e+01 4.653740e+00 -1.582135e+03)	(1.023615e-02 4.540185e-02 1.036894e+00)
0.00965249    	(-1.598650e+01 4.719275e+00 -1.585642e+03)	(-1.599668e+01 4.673929e+00 -1.586673e+03)	(1.017704e-02 4.534657e-02 1.031067e+00)
0.00972759    	(-1.601905e+01 4.739908e+00 -1.588834e+03)	(-1.602916e+01 4.694618e+00 -1.589860e+03)	(1.011800e-02 4.528991e-02 1.025245e+00)
0.00980263    	(-1.605728e+01 4.758701e+00 -1.592595e+03)	(-1.606734e+01 4.713465e+00 -1.593615e+03)	(1.005983e-02 4.523541e-02 1.019509e+00)
0.00987767    	(-1.610210e+01 4.786043e+00 -1.596991e+03)	(-1.611210e+01 4.740862e+00 -1.598005e+03)	(1.000191e-02 4.518158e-02 1.013798e+00)
0.00995265    	(-1.614620e+01 4.805424e+00 -1.601335e+03)	(-1.615615e+01 4.760297e+00 -1.602343e+03)	(9.945178e-03 4.512727e-02 1.008204e+00)
0.0100276     	(-1.616807e+01 4.819184e+00 -1.603481e+03)	(-1.617796e+01 4.774113e+00 -1.604484e+03)	(9.888915e-03 4.507133e-02 1.002656e+00)
0.0101024     	(-1.621099e+01 4.847145e+00 -1.607690e+03)	(-1.622082e+01 4.802129e+00 -1.608687e+03)	(9.834098e-03 4.501682e-02 9.972512e-01)
0.0101772     	(-1.625015e+01 4.865416e+00 -1.611545e+03)	(-1.625993e+01 4.820465e+00 -1.612537e+03)	(9.784117e-03 4.495087e-02 9.923286e-01)
0.010252      	(-1.628705e+01 4.884293e+00 -1.615176e+03)	(-1.629678e+01 4.839395e+00 -1.616163e+03)	(9.729510e-03 4.489764e-02 9.869415e-01)
0.0103267     	(-1.631772e+01 4.900715e+00 -1.618192e+03)	(-1.632740e+01 4.855871e+00 -1.619174e+03)	(9.675796e-03 4.484396e-02 9.816431e-01)
0.0104015     	(-1.638047e+01 4.936928e+00 -1.624351e+03)	(-1.639009e+01 4.892135e+00 -1.625327e+03)	(9.623853e-03 4.479223e-02 9.765210e-01)
0.0104761     	(-1.641892e+01 4.955358e+00 -1.628135e+03)	(-1.642849e+01 4.910617e+00 -1.629106e+03)	(9.572407e-03 4.474030e-02 9.714473e-01)
0.0105508     	(-1.646833e+01 4.978011e+00 -1.632997e+03)	(-1.647785e+01 4.933324e+00 -1.633964e+03)	(9.522127e-03 4.468762e-02 9.664869e-01)
0.0106254     	(-1.650635e+01 4.996265e+00 -1.636737e+03)	(-1.651582e+01 4.951631e+00 -1.637699e+03)	(9.473910e-03 4.463353e-02 9.617308e-01)
0.0106999     	(-1.656351e+01 5.029396e+00 -1.642346e+03)	(-1.657294e+01 4.984815e+00 -1.643303e+03)	(9.428245e-03 4.458161e-02 9.572269e-01)
0.0107742     	(-1.662451e+01 5.055279e+00 -1.648345e+03)	(-1.663390e+01 5.010759e+00 -1.649299e+03)	(9.389416e-03 4.452067e-02 9.534030e-01)
0.0108485     	(-1.664352e+01 5.066889e+00 -1.650218e+03)	(-1.665286e+01 5.022419e+00 -1.651167e+03)	(9.343769e-03 4.447043e-02 9.488968e-01)
0.0109227     	(-1.666449e+01 5.078037e+00 -1.652285e+03)	(-1.667379e+01 5.033617e+00 -1.653230e+03)	(9.298563e-03 4.441995e-02 9.444348e-01)
0.0109968     	(-1.665029e+01 5.084947e+00 -1.650877e+03)	(-1.665955e+01 5.040576e+00 -1.651817e+03)	(9.253147e-03 4.437057e-02 9.399536e-01)
0.0110708     	(-1.665549e+01 5.090398e+00 -1.651394e+03)	(-1.666470e+01 5.046077e+00 -1.652330e+03)	(9.207931e-03 4.432100e-02 9.354919e-01)
0.0111448     	(-1.658606e+01 5.068710e+00 -1.644575e+03)	(-1.659522e+01 5.024439e+00 -1.645506e+03)	(9.161265e-03 4.427092e-02 9.308879e-01)
0.0112187     	(-1.658602e+01 5.071306e+00 -1.644580e+03)	(-1.659513e+01 5.027084e+00 -1.645507e+03)	(9.118495e-03 4.422149e-02 9.266685e-01)
0.0112926     	(-1.657115e+01 5.078093e+00 -1.643106e+03)	(-1.658023e+01 5.033921e+00 -1.644029e+03)	(9.079200e-03 4.417234e-02 9.227924e-01)
0.0113665     	(-1.656007e+01 5.079191e+00 -1.642022e+03)	(-1.656911e+01 5.035065e+00 -1.642941e+03)	(9.041917e-03 4.412507e-02 9.191152e-01)
0.0114403     	(-1.653948e+01 5.072801e+00 -1.640012e+03)	(-1.654850e+01 5.028728e+00 -1.640929e+03)	(9.014200e-03 4.407334e-02 9.163900e-01)
0.0115141     	(-1.654242e+01 5.074955e+00 -1.640318e+03)	(-1.655140e+01 5.030927e+00 -1.641232e+03)	(8.980742e-03 4.402827e-02 9.130863e-01)
0.0115879     	(-1.650113e+01 5.069225e+00 -1.636259e+03)	(-1.651008e+01 5.025240e+00 -1.637169e+03)	(8.949182e-03 4.398416e-02 9.099706e-01)
0.0116617     	(-1.645985e+01 5.062327e+00 -1.632204e+03)	(-1.646877e+01 5.018386e+00 -1.633111e+03)	(8.918513e-03 4.394094e-02 9.069435e-01)
0.0117354     	(-1.640018e+01 5.041292e+00 -1.626358e+03)	(-1.640907e+01 4.997394e+00 -1.627262e+03)	(8.887582e-03 4.389863e-02 9.038916e-01)
0.0118091     	(-1.633492e+01 5.028379e+00 -1.619937e+03)	(-1.634378e+01 4.984519e+00 -1.620838e+03)	(8.859871e-03 4.385928e-02 9.011586e-01)
0.0118829     	(-1.623575e+01 5.003578e+00 -1.610181e+03)	(-1.624458e+01 4.959749e+00 -1.611080e+03)	(8.834734e-03 4.382955e-02 8.986856e-01)
0.0119566     	(-1.616069e+01 4.985834e+00 -1.602803e+03)	(-1.616950e+01 4.942037e+00 -1.603699e+03)	(8.810090e-03 4.379708e-02 8.962588e-01)
0.0120304     	(-1.608414e+01 4.960424e+00 -1.595297e+03)	(-1.609293e+01 4.916661e+00 -1.596191e+03)	(8.787802e-03 4.376306e-02 8.940640e-01)
0.0121042     	(-1.600124e+01 4.941102e+00 -1.587142e+03)	(-1.601001e+01 4.897374e+00 -1.588034e+03)	(8.767328e-03 4.372756e-02 8.920468e-01)
0.0121781     	(-1.592334e+01 4.924274e+00 -1.579477e+03)	(-1.593208e+01 4.880583e+00 -1.580368e+03)	(8.747537e-03 4.369117e-02 8.900959e-01)
0.012252      	(-1.583761e+01 4.902529e+00 -1.571045e+03)	(-1.584633e+01 4.858875e+00 -1.571934e+03)	(8.727776e-03 4.365406e-02 8.881475e-01)
0.012326      	(-1.575571e+01 4.878368e+00 -1.563007e+03)	(-1.576442e+01 4.834751e+00 -1.563893e+03)	(8.707446e-03 4.361722e-02 8.861429e-01)
0.0124        	(-1.570024e+01 4.868466e+00 -1.557552e+03)	(-1.570893e+01 4.824886e+00 -1.558436e+03)	(8.685740e-03 4.357985e-02 8.840020e-01)
0.0124741     	(-1.564093e+01 4.857248e+00 -1.551716e+03)	(-1.564960e+01 4.813706e+00 -1.552598e+03)	(8.665307e-03 4.354198e-02 8.819858e-01)
0.0125484     	(-1.560392e+01 4.851593e+00 -1.548075e+03)	(-1.561257e+01 4.808091e+00 -1.548954e+03)	(8.643738e-03 4.350258e-02 8.798565e-01)
0.0126227     	(-1.559401e+01 4.850141e+00 -1.547114e+03)	(-1.560263e+01 4.806680e+00 -1.547992e+03)	(8.620533e-03 4.346076e-02 8.775645e-01)
0.0126971     	(-1.561335e+01 4.862659e+00 -1.549020e+03)	(-1.562195e+01 4.819243e+00 -1.549896e+03)	(8.595673e-03 4.341600e-02 8.751077e-01)
0.0127717     	(-1.562427e+01 4.871918e+00 -1.550098e+03)	(-1.563284e+01 4.828550e+00 -1.550970e+03)	(8.569431e-03 4.336821e-02 8.725123e-01)
0.0128463     	(-1.563046e+01 4.878901e+00 -1.550706e+03)	(-1.563900e+01 4.835584e+00 -1.551576e+03)	(8.542062e-03 4.331727e-02 8.698037e-01)
0.0129212     	(-1.569325e+01 4.901858e+00 -1.556894e+03)	(-1.570176e+01 4.858597e+00 -1.557761e+03)	(8.512170e-03 4.326129e-02 8.668431e-01)
0.0129961     	(-1.560480e+01 4.877383e+00 -1.548194e+03)	(-1.561328e+01 4.834180e+00 -1.549058e+03)	(8.477908e-03 4.320321e-02 8.634518e-01)
0.0130712     	(-1.563386e+01 4.889597e+00 -1.551061e+03)	(-1.564230e+01 4.846455e+00 -1.551921e+03)	(8.442307e-03 4.314204e-02 8.599294e-01)
0.0131464     	(-1.560280e+01 4.886158e+00 -1.548000e+03)	(-1.561121e+01 4.843081e+00 -1.548856e+03)	(8.405324e-03 4.307711e-02 8.562693e-01)
0.0132217     	(-1.565893e+01 4.907298e+00 -1.553524e+03)	(-1.566730e+01 4.864290e+00 -1.554376e+03)	(8.367107e-03 4.300767e-02 8.524843e-01)
0.0132971     	(-1.572131e+01 4.929186e+00 -1.559664e+03)	(-1.572964e+01 4.886252e+00 -1.560513e+03)	(8.327296e-03 4.293375e-02 8.485390e-01)
0.0133725     	(-1.580943e+01 4.960237e+00 -1.568339e+03)	(-1.581771e+01 4.917381e+00 -1.569183e+03)	(8.286098e-03 4.285562e-02 8.444542e-01)
0.0134479     	(-1.587044e+01 4.988729e+00 -1.574326e+03)	(-1.587869e+01 4.945954e+00 -1.575166e+03)	(8.244177e-03 4.277507e-02 8.402961e-01)
0.0135233     	(-1.595499e+01 5.025030e+00 -1.582626e+03)	(-1.596319e+01 4.982339e+00 -1.583462e+03)	(8.202959e-03 4.269029e-02 8.362033e-01)
0.0135988     	(-1.605019e+01 5.059035e+00 -1.591987e+03)	(-1.605836e+01 5.016433e+00 -1.592819e+03)	(8.161349e-03 4.260193e-02 8.320687e-01)
0.0136743     	(-1.617278e+01 5.100035e+00 -1.604052e+03)	(-1.618090e+01 5.057526e+00 -1.604880e+03)	(8.118884e-03 4.250923e-02 8.278459e-01)
0.0137499     	(-1.628523e+01 5.141829e+00 -1.615102e+03)	(-1.629330e+01 5.099417e+00 -1.615925e+03)	(8.075682e-03 4.241288e-02 8.235474e-01)
0.0138255     	(-1.639197e+01 5.185712e+00 -1.625580e+03)	(-1.640001e+01 5.143399e+00 -1.626400e+03)	(8.032709e-03 4.231254e-02 8.192679e-01)
0.0139012     	(-1.651105e+01 5.232451e+00 -1.637272e+03)	(-1.651904e+01 5.190243e+00 -1.638087e+03)	(7.990196e-03 4.220752e-02 8.150297e-01)
0.0139768     	(-1.665909e+01 5.282171e+00 -1.651836e+03)	(-1.666704e+01 5.240074e+00 -1.652647e+03)	(7.947824e-03 4.209746e-02 8.108013e-01)
0.0140523     	(-1.679595e+01 5.329057e+00 -1.665295e+03)	(-1.680386e+01 5.287075e+00 -1.666101e+03)	(7.905720e-03 4.198280e-02 8.065954e-01)
0.0141279     	(-1.691971e+01 5.378265e+00 -1.677448e+03)	(-1.692758e+01 5.336402e+00 -1.678250e+03)	(7.862986e-03 4.186304e-02 8.023235e-01)
0.0142035     	(-1.705223e+01 5.433343e+00 -1.690450e+03)	(-1.706006e+01 5.391606e+00 -1.691249e+03)	(7.820963e-03 4.173736e-02 7.981168e-01)
0.014279      	(-1.719777e+01 5.487329e+00 -1.704751e+03)	(-1.720555e+01 5.445724e+00 -1.705545e+03)	(7.778759e-03 4.160485e-02 7.938870e-01)
0.0143545     	(-1.735786e+01 5.542226e+00 -1.720493e+03)	(-1.736559e+01 5.500761e+00 -1.721283e+03)	(7.735701e-03 4.146463e-02 7.895675e-01)
0.01443       	(-1.752044e+01 5.601177e+00 -1.736473e+03)	(-1.752814e+01 5.559859e+00 -1.737258e+03)	(7.690740e-03 4.131773e-02 7.850546e-01)
0.0145055     	(-1.768260e+01 5.660631e+00 -1.752404e+03)	(-1.769025e+01 5.619464e+00 -1.753185e+03)	(7.643806e-03 4.116627e-02 7.803431e-01)
0.014581      	(-1.782338e+01 5.714499e+00 -1.766230e+03)	(-1.783097e+01 5.673490e+00 -1.767005e+03)	(7.596039e-03 4.100908e-02 7.755440e-01)
0.0146564     	(-1.799026e+01 5.781373e+00 -1.782629e+03)	(-1.799780e+01 5.740525e+00 -1.783400e+03)	(7.546529e-03 4.084747e-02 7.705694e-01)
0.0147319     	(-1.816022e+01 5.848911e+00 -1.799335e+03)	(-1.816771e+01 5.808228e+00 -1.800100e+03)	(7.494933e-03 4.068221e-02 7.653865e-01)
0.0148073     	(-1.832884e+01 5.913890e+00 -1.815914e+03)	(-1.833629e+01 5.873376e+00 -1.816674e+03)	(7.441319e-03 4.051377e-02 7.600026e-01)
0.0148829     	(-1.848046e+01 5.975746e+00 -1.830815e+03)	(-1.848785e+01 5.935405e+00 -1.831569e+03)	(7.385282e-03 4.034120e-02 7.543785e-01)
0.0149584     	(-1.861985e+01 6.037238e+00 -1.844491e+03)	(-1.862718e+01 5.997073e+00 -1.845240e+03)	(7.328640e-03 4.016585e-02 7.486964e-01)
0.0150339     	(-1.876284e+01 6.098483e+00 -1.858527e+03)	(-1.877011e+01 6.058496e+00 -1.859270e+03)	(7.270410e-03 3.998703e-02 7.428599e-01)
0.0151094     	(-1.893041e+01 6.159181e+00 -1.875002e+03)	(-1.893762e+01 6.119376e+00 -1.875739e+03)	(7.210326e-03 3.980469e-02 7.368428e-01)
0.015185      	(-1.908661e+01 6.217280e+00 -1.890355e+03)	(-1.909376e+01 6.177660e+00 -1.891086e+03)	(7.149725e-03 3.962013e-02 7.307775e-01)