# Moment      
# CofR        : (5.000000e+00 5.000000e-03 0.000000e+00)
#
# Time        	(total_x total_y total_z)	(pressure_x pressure_y pressure_z)	(viscous_x viscous_y viscous_z)
1.20005e-05   	(-8.243073e+03 4.500724e+03 -8.140706e+05)	(-8.243077e+03 4.500684e+03 -8.140709e+05)	(3.232582e-03 4.002313e-02 3.359885e-01)
2.64017e-05   	(-2.300695e+02 1.298166e+02 -2.274252e+04)	(-2.300739e+02 1.297775e+02 -2.274298e+04)	(4.440327e-03 3.913489e-02 4.551215e-01)
4.36833e-05   	(-4.289661e+01 2.519044e+01 -4.237530e+03)	(-4.290161e+01 2.515146e+01 -4.238040e+03)	(4.999499e-03 3.897935e-02 5.102723e-01)
6.44211e-05   	(-2.044570e+01 9.308334e+00 -2.023871e+03)	(-2.045097e+01 9.269348e+00 -2.024407e+03)	(5.262280e-03 3.898601e-02 5.361635e-01)
8.93055e-05   	(-1.669574e+01 5.501497e+00 -1.655268e+03)	(-1.670117e+01 5.462463e+00 -1.655821e+03)	(5.430961e-03 3.903356e-02 5.527521e-01)
0.000119165   	(-1.679161e+01 5.419725e+00 -1.664782e+03)	(-1.679717e+01 5.380597e+00 -1.665347e+03)	(5.559545e-03 3.912751e-02 5.653816e-01)
0.00015499    	(-1.762020e+01 6.547040e+00 -1.745917e+03)	(-1.762587e+01 6.507752e+00 -1.746492e+03)	(5.664888e-03 3.928821e-02 5.757253e-01)
0.000197972   	(-1.808720e+01 7.369877e+00 -1.791701e+03)	(-1.809295e+01 7.330366e+00 -1.792286e+03)	(5.753413e-03 3.951070e-02 5.844133e-01)
0.000249073   	(-1.806335e+01 7.703132e+00 -1.789360e+03)	(-1.806918e+01 7.663358e+00 -1.789952e+03)	(5.835457e-03 3.977407e-02 5.924774e-01)
0.000308238   	(-1.811882e+01 7.903422e+00 -1.795048e+03)	(-1.812475e+01 7.863391e+00 -1.795649e+03)	(5.925434e-03 4.003158e-02 6.013577e-01)
0.000375461   	(-1.814882e+01 8.005216e+00 -1.798184e+03)	(-1.815488e+01 7.964947e+00 -1.798798e+03)	(6.060119e-03 4.026937e-02 6.147258e-01)
0.000450706   	(-1.839705e+01 8.170153e+00 -1.822890e+03)	(-1.840331e+01 8.129694e+00 -1.823525e+03)	(6.264789e-03 4.045886e-02 6.350953e-01)
0.000526814   	(-1.918262e+01 8.435193e+00 -1.900851e+03)	(-1.918916e+01 8.394590e+00 -1.901513e+03)	(6.537043e-03 4.060329e-02 6.622215e-01)
0.000597968   	(-1.860802e+01 8.139954e+00 -1.844406e+03)	(-1.861487e+01 8.099269e+00 -1.845099e+03)	(6.844177e-03 4.068467e-02 6.928315e-01)
0.000665588   	(-1.789918e+01 7.760762e+00 -1.774748e+03)	(-1.790635e+01 7.720047e+00 -1.775473e+03)	(7.168102e-03 4.071495e-02 7.251165e-01)
0.000730983   	(-1.734824e+01 7.400040e+00 -1.720815e+03)	(-1.735575e+01 7.359321e+00 -1.721574e+03)	(7.505911e-03 4.071894e-02 7.587810e-01)
0.000794617   	(-1.649854e+01 7.058279e+00 -1.636937e+03)	(-1.650639e+01 7.017570e+00 -1.637730e+03)	(7.849926e-03 4.070922e-02 7.930585e-01)
0.000857485   	(-1.565546e+01 6.750082e+00 -1.553415e+03)	(-1.566366e+01 6.709390e+00 -1.554243e+03)	(8.199050e-03 4.069226e-02 8.278374e-01)
0.000920273   	(-1.498476e+01 6.453172e+00 -1.487074e+03)	(-1.499332e+01 6.412493e+00 -1.487938e+03)	(8.562992e-03 4.067976e-02 8.640759e-01)
0.000983301   	(-1.428367e+01 6.072315e+00 -1.417988e+03)	(-1.429262e+01 6.031636e+00 -1.418891e+03)	(8.954056e-03 4.067956e-02 9.029858e-01)
0.00104706    	(-1.335276e+01 5.540722e+00 -1.326328e+03)	(-1.336218e+01 5.499978e+00 -1.327277e+03)	(9.421427e-03 4.074425e-02 9.494440e-01)
0.00111195    	(-1.203114e+01 4.820311e+00 -1.196019e+03)	(-1.204108e+01 4.779447e+00 -1.197020e+03)	(9.944491e-03 4.086315e-02 1.001421e+00)
0.00117822    	(-1.047884e+01 3.958000e+00 -1.042965e+03)	(-1.048923e+01 3.916984e+00 -1.044011e+03)	(1.039376e-02 4.101589e-02 1.046108e+00)
0.00124419    	(-8.267795e+00 2.589996e+00 -8.253488e+02)	(-8.278553e+00 2.548816e+00 -8.264312e+02)	(1.075787e-02 4.118068e-02 1.082371e+00)
0.00130951    	(-3.216889e+00 -5.446648e-01 -3.281296e+02)	(-3.227917e+00 -5.860048e-01 -3.292390e+02)	(1.102848e-02 4.134001e-02 1.109375e+00)
0.00137482    	(6.707028e+00 -6.663267e+00 6.491614e+02)	(6.695892e+00 -6.704723e+00 6.480411e+02)	(1.113674e-02 4.145577e-02 1.120293e+00)
0.00144049    	(3.625183e+00 -5.043632e+00 3.458311e+02)	(3.613991e+00 -5.085168e+00 3.447052e+02)	(1.119160e-02 4.153609e-02 1.125894e+00)
0.00150686    	(-8.423603e+00 1.872412e+00 -8.407703e+02)	(-8.434915e+00 1.830777e+00 -8.419082e+02)	(1.131191e-02 4.163520e-02 1.137946e+00)
0.00157386    	(-1.259086e+01 3.768584e+00 -1.251898e+03)	(-1.260231e+01 3.726875e+00 -1.253050e+03)	(1.145090e-02 4.170905e-02 1.151820e+00)
0.00164155    	(-1.523315e+01 3.825561e+00 -1.514102e+03)	(-1.524470e+01 3.783837e+00 -1.515263e+03)	(1.154986e-02 4.172417e-02 1.161688e+00)
0.00171005    	(-2.053133e+01 3.458339e+00 -2.040754e+03)	(-2.054288e+01 3.416760e+00 -2.041915e+03)	(1.154251e-02 4.157904e-02 1.160929e+00)
0.00177912    	(-2.331553e+01 3.177051e+00 -2.317888e+03)	(-2.332699e+01 3.135699e+00 -2.319041e+03)	(1.146011e-02 4.135260e-02 1.152681e+00)
0.00184878    	(-1.726978e+01 3.664263e+00 -1.716808e+03)	(-1.728125e+01 3.622928e+00 -1.717962e+03)	(1.147202e-02 4.133472e-02 1.153880e+00)
0.00191889    	(-1.347917e+01 3.883280e+00 -1.340080e+03)	(-1.349072e+01 3.841854e+00 -1.341241e+03)	(1.154599e-02 4.142602e-02 1.161286e+00)
0.00198899    	(-1.304478e+01 3.931022e+00 -1.296842e+03)	(-1.305641e+01 3.889526e+00 -1.298012e+03)	(1.162566e-02 4.149583e-02 1.169266e+00)
0.00205935    	(-1.318282e+01 4.013458e+00 -1.310444e+03)	(-1.319454e+01 3.971899e+00 -1.311622e+03)	(1.171275e-02 4.155948e-02 1.177985e+00)
0.00212941    	(-1.332368e+01 4.100623e+00 -1.324323e+03)	(-1.333547e+01 4.059030e+00 -1.325509e+03)	(1.179098e-02 4.159348e-02 1.185821e+00)
0.00219982    	(-1.337713e+01 4.120553e+00 -1.329625e+03)	(-1.338901e+01 4.078932e+00 -1.330819e+03)	(1.187329e-02 4.162110e-02 1.194066e+00)
0.00227008    	(-1.353237e+01 4.195034e+00 -1.344945e+03)	(-1.354434e+01 4.153364e+00 -1.346149e+03)	(1.197213e-02 4.166976e-02 1.203957e+00)
0.00234014    	(-1.367507e+01 4.261095e+00 -1.359024e+03)	(-1.368714e+01 4.219381e+00 -1.360238e+03)	(1.207012e-02 4.171423e-02 1.213766e+00)
0.00241005    	(-1.382132e+01 4.335731e+00 -1.373459e+03)	(-1.383347e+01 4.294038e+00 -1.374680e+03)	(1.214494e-02 4.169283e-02 1.221264e+00)
0.0024798     	(-1.384752e+01 4.353461e+00 -1.376060e+03)	(-1.385980e+01 4.311691e+00 -1.377294e+03)	(1.227191e-02 4.176988e-02 1.233958e+00)
0.00254941    	(-1.393631e+01 4.401471e+00 -1.384818e+03)	(-1.394865e+01 4.359732e+00 -1.386059e+03)	(1.233721e-02 4.173974e-02 1.240509e+00)
0.00261897    	(-1.402216e+01 4.444435e+00 -1.393295e+03)	(-1.403457e+01 4.402711e+00 -1.394543e+03)	(1.241073e-02 4.172451e-02 1.247878e+00)
0.00268853    	(-1.407366e+01 4.466992e+00 -1.398382e+03)	(-1.408614e+01 4.425289e+00 -1.399637e+03)	(1.247705e-02 4.170307e-02 1.254529e+00)
0.00275813    	(-1.413287e+01 4.502749e+00 -1.404222e+03)	(-1.414541e+01 4.461079e+00 -1.405482e+03)	(1.253539e-02 4.167024e-02 1.260387e+00)
0.00282789    	(-1.417380e+01 4.526426e+00 -1.408265e+03)	(-1.418643e+01 4.484730e+00 -1.409534e+03)	(1.262464e-02 4.169597e-02 1.269325e+00)
0.00289785    	(-1.423356e+01 4.554520e+00 -1.414162e+03)	(-1.424623e+01 4.512855e+00 -1.415437e+03)	(1.267693e-02 4.166490e-02 1.274582e+00)
0.00296801    	(-1.429805e+01 4.587870e+00 -1.420529e+03)	(-1.431079e+01 4.546220e+00 -1.421810e+03)	(1.273705e-02 4.165025e-02 1.280617e+00)
0.00303837    	(-1.432497e+01 4.602540e+00 -1.423189e+03)	(-1.433774e+01 4.560923e+00 -1.424473e+03)	(1.277603e-02 4.161702e-02 1.284547e+00)
0.00310899    	(-1.433975e+01 4.609442e+00 -1.424653e+03)	(-1.435258e+01 4.567814e+00 -1.425944e+03)	(1.283646e-02 4.162855e-02 1.290613e+00)
0.00317987    	(-1.438805e+01 4.633640e+00 -1.429417e+03)	(-1.440092e+01 4.592042e+00 -1.430712e+03)	(1.287286e-02 4.159815e-02 1.294286e+00)
0.00325106    	(-1.443806e+01 4.657472e+00 -1.434350e+03)	(-1.445098e+01 4.615886e+00 -1.435649e+03)	(1.292386e-02 4.158604e-02 1.299414e+00)
0.00332236    	(-1.445197e+01 4.662838e+00 -1.435734e+03)	(-1.446494e+01 4.621257e+00 -1.437037e+03)	(1.296339e-02 4.158107e-02 1.303401e+00)
0.00339371    	(-1.445062e+01 4.671118e+00 -1.435604e+03)	(-1.446361e+01 4.629547e+00 -1.436911e+03)	(1.299876e-02 4.157178e-02 1.306973e+00)
0.00346516    	(-1.446248e+01 4.673198e+00 -1.436787e+03)	(-1.447551e+01 4.631634e+00 -1.438097e+03)	(1.303125e-02 4.156415e-02 1.310259e+00)
0.00353672    	(-1.448806e+01 4.684162e+00 -1.439317e+03)	(-1.450113e+01 4.642596e+00 -1.440631e+03)	(1.306667e-02 4.156596e-02 1.313838e+00)
0.00360839    	(-1.453554e+01 4.709223e+00 -1.444004e+03)	(-1.454865e+01 4.667642e+00 -1.445322e+03)	(1.311099e-02 4.158087e-02 1.318301e+00)
0.00368016    	(-1.455497e+01 4.717203e+00 -1.445935e+03)	(-1.456812e+01 4.675620e+00 -1.447257e+03)	(1.314798e-02 4.158388e-02 1.322037e+00)
0.00375204    	(-1.456809e+01 4.720373e+00 -1.447244e+03)	(-1.458126e+01 4.678783e+00 -1.448569e+03)	(1.317173e-02 4.158966e-02 1.324455e+00)
0.00382409    	(-1.460517e+01 4.740548e+00 -1.450907e+03)	(-1.461836e+01 4.698948e+00 -1.452234e+03)	(1.319687e-02 4.159915e-02 1.327011e+00)
0.00389624    	(-1.462905e+01 4.756930e+00 -1.453260e+03)	(-1.464228e+01 4.715319e+00 -1.454590e+03)	(1.323054e-02 4.161042e-02 1.330417e+00)
0.00396828    	(-1.465374e+01 4.767946e+00 -1.455700e+03)	(-1.466700e+01 4.726326e+00 -1.457033e+03)	(1.325287e-02 4.162036e-02 1.332695e+00)
0.00403984    	(-1.468370e+01 4.782319e+00 -1.458658e+03)	(-1.469698e+01 4.740687e+00 -1.459993e+03)	(1.327362e-02 4.163200e-02 1.334816e+00)
0.0041114     	(-1.472464e+01 4.802291e+00 -1.462696e+03)	(-1.473793e+01 4.760649e+00 -1.464033e+03)	(1.329298e-02 4.164159e-02 1.336797e+00)
0.00418328    	(-1.475662e+01 4.817990e+00 -1.465842e+03)	(-1.476993e+01 4.776333e+00 -1.467182e+03)	(1.331782e-02 4.165666e-02 1.339327e+00)
0.00425559    	(-1.474839e+01 4.812300e+00 -1.465038e+03)	(-1.476172e+01 4.770634e+00 -1.466379e+03)	(1.333081e-02 4.166538e-02 1.340675e+00)
0.0043284     	(-1.474812e+01 4.802161e+00 -1.465029e+03)	(-1.476147e+01 4.760502e+00 -1.466372e+03)	(1.334944e-02 4.165930e-02 1.342587e+00)
0.00440088    	(-1.476222e+01 4.799434e+00 -1.466438e+03)	(-1.477558e+01 4.757771e+00 -1.467782e+03)	(1.336078e-02 4.166357e-02 1.343771e+00)
0.00447233    	(-1.478302e+01 4.800779e+00 -1.468505e+03)	(-1.479639e+01 4.759112e+00 -1.469850e+03)	(1.337164e-02 4.166756e-02 1.344907e+00)
0.00454309    	(-1.481107e+01 4.808694e+00 -1.471285e+03)	(-1.482445e+01 4.767020e+00 -1.472631e+03)	(1.338182e-02 4.167346e-02 1.345976e+00)
0.00461333    	(-1.485472e+01 4.824692e+00 -1.475599e+03)	(-1.486811e+01 4.783015e+00 -1.476946e+03)	(1.339165e-02 4.167718e-02 1.347010e+00)
0.00468326    	(-1.489372e+01 4.840836e+00 -1.479452e+03)	(-1.490712e+01 4.799157e+00 -1.480800e+03)	(1.339895e-02 4.167821e-02 1.347790e+00)
0.00475304    	(-1.493541e+01 4.863047e+00 -1.483561e+03)	(-1.494882e+01 4.821369e+00 -1.484910e+03)	(1.340481e-02 4.167740e-02 1.348427e+00)
0.00482266    	(-1.497311e+01 4.878986e+00 -1.487289e+03)	(-1.498653e+01 4.837300e+00 -1.488638e+03)	(1.341903e-02 4.168552e-02 1.349899e+00)
0.00489214    	(-1.500997e+01 4.895491e+00 -1.490929e+03)	(-1.502339e+01 4.853810e+00 -1.492279e+03)	(1.341983e-02 4.168081e-02 1.350031e+00)
0.00496151    	(-1.505834e+01 4.925250e+00 -1.495684e+03)	(-1.507175e+01 4.883574e+00 -1.497034e+03)	(1.341963e-02 4.167565e-02 1.350065e+00)
0.00503083    	(-1.511242e+01 4.954564e+00 -1.501012e+03)	(-1.512584e+01 4.912896e+00 -1.502362e+03)	(1.341741e-02 4.166842e-02 1.349895e+00)
0.00510025    	(-1.515092e+01 4.976575e+00 -1.504802e+03)	(-1.516433e+01 4.934915e+00 -1.506152e+03)	(1.341245e-02 4.165942e-02 1.349455e+00)
0.00516982    	(-1.520133e+01 5.006518e+00 -1.509763e+03)	(-1.521474e+01 4.964869e+00 -1.511112e+03)	(1.340749e-02 4.164916e-02 1.349014e+00)
0.00523976    	(-1.526054e+01 5.037113e+00 -1.515595e+03)	(-1.527396e+01 4.995490e+00 -1.516945e+03)	(1.341324e-02 4.162305e-02 1.349643e+00)
0.00531005    	(-1.531212e+01 5.062511e+00 -1.520680e+03)	(-1.532553e+01 5.020903e+00 -1.522028e+03)	(1.340344e-02 4.160851e-02 1.348720e+00)
0.00538088    	(-1.536115e+01 5.092984e+00 -1.525502e+03)	(-1.537454e+01 5.051390e+00 -1.526849e+03)	(1.339170e-02 4.159352e-02 1.347606e+00)
0.00545223    	(-1.539062e+01 5.103606e+00 -1.528414e+03)	(-1.540400e+01 5.062029e+00 -1.529760e+03)	(1.337892e-02 4.157705e-02 1.346387e+00)
0.00552424    	(-1.542102e+01 5.115391e+00 -1.531414e+03)	(-1.543438e+01 5.073832e+00 -1.532759e+03)	(1.336421e-02 4.155845e-02 1.344975e+00)
0.00559681    	(-1.544728e+01 5.124159e+00 -1.534012e+03)	(-1.546063e+01 5.082620e+00 -1.535355e+03)	(1.334612e-02 4.153882e-02 1.343229e+00)
0.00566915    	(-1.548071e+01 5.137723e+00 -1.537313e+03)	(-1.549405e+01 5.096203e+00 -1.538656e+03)	(1.334107e-02 4.151970e-02 1.342784e+00)
0.00574126    	(-1.550717e+01 5.143481e+00 -1.539930e+03)	(-1.552049e+01 5.101987e+00 -1.541271e+03)	(1.332030e-02 4.149395e-02 1.340769e+00)
0.00581322    	(-1.555347e+01 5.168687e+00 -1.544481e+03)	(-1.556677e+01 5.127232e+00 -1.545821e+03)	(1.330918e-02 4.145504e-02 1.339718e+00)
0.00588495    	(-1.559485e+01 5.192683e+00 -1.548551e+03)	(-1.560813e+01 5.151249e+00 -1.549888e+03)	(1.328152e-02 4.143411e-02 1.337019e+00)
0.00595647    	(-1.565043e+01 5.223637e+00 -1.554018e+03)	(-1.566368e+01 5.182226e+00 -1.555353e+03)	(1.325321e-02 4.141047e-02 1.334253e+00)
0.00602777    	(-1.568282e+01 5.238058e+00 -1.557206e+03)	(-1.569604e+01 5.196672e+00 -1.558538e+03)	(1.322319e-02 4.138591e-02 1.331316e+00)
0.0060989     	(-1.572504e+01 5.260106e+00 -1.561360e+03)	(-1.573824e+01 5.218744e+00 -1.562688e+03)	(1.319091e-02 4.136221e-02 1.328155e+00)
0.00616983    	(-1.577311e+01 5.282190e+00 -1.566096e+03)	(-1.578627e+01 5.240853e+00 -1.567421e+03)	(1.315950e-02 4.133740e-02 1.325081e+00)
0.00624059    	(-1.582495e+01 5.307457e+00 -1.571206e+03)	(-1.583808e+01 5.266148e+00 -1.572528e+03)	(1.312895e-02 4.130888e-02 1.322093e+00)
0.00631119    	(-1.587403e+01 5.330864e+00 -1.576038e+03)	(-1.588713e+01 5.289584e+00 -1.577357e+03)	(1.309788e-02 4.128052e-02 1.319051e+00)
0.00638168    	(-1.590609e+01 5.344781e+00 -1.579198e+03)	(-1.591916e+01 5.303538e+00 -1.580515e+03)	(1.307393e-02 4.124302e-02 1.316723e+00)
0.00645207    	(-1.596423e+01 5.368099e+00 -1.584942e+03)	(-1.597727e+01 5.326883e+00 -1.586255e+03)	(1.303737e-02 4.121547e-02 1.313133e+00)
0.00652246    	(-1.599921e+01 5.383426e+00 -1.588393e+03)	(-1.601221e+01 5.342240e+00 -1.589702e+03)	(1.299983e-02 4.118605e-02 1.309446e+00)
0.00659285    	(-1.603178e+01 5.399664e+00 -1.591597e+03)	(-1.604474e+01 5.358507e+00 -1.592903e+03)	(1.296033e-02 4.115671e-02 1.305564e+00)
0.0066633     	(-1.608245e+01 5.429288e+00 -1.596582e+03)	(-1.609537e+01 5.388162e+00 -1.597883e+03)	(1.291903e-02 4.112555e-02 1.301503e+00)
0.00673379    	(-1.613987e+01 5.457503e+00 -1.602236e+03)	(-1.615275e+01 5.416411e+00 -1.603534e+03)	(1.288019e-02 4.109210e-02 1.297686e+00)
0.00680434    	(-1.618089e+01 5.479653e+00 -1.606266e+03)	(-1.619373e+01 5.438595e+00 -1.607560e+03)	(1.284049e-02 4.105760e-02 1.293784e+00)
0.006875      	(-1.622997e+01 5.505798e+00 -1.611091e+03)	(-1.624278e+01 5.464781e+00 -1.612382e+03)	(1.280801e-02 4.101700e-02 1.290603e+00)
0.00694576    	(-1.628459e+01 5.534699e+00 -1.616469e+03)	(-1.629736e+01 5.493717e+00 -1.617755e+03)	(1.276302e-02 4.098192e-02 1.286175e+00)
0.00701663    	(-1.633380e+01 5.560840e+00 -1.621310e+03)	(-1.634652e+01 5.519895e+00 -1.622592e+03)	(1.271789e-02 4.094493e-02 1.281730e+00)
0.00708767    	(-1.638245e+01 5.589774e+00 -1.626089e+03)	(-1.639513e+01 5.548866e+00 -1.627366e+03)	(1.267109e-02 4.090770e-02 1.277121e+00)
0.00715881    	(-1.645623e+01 5.631935e+00 -1.633344e+03)	(-1.646886e+01 5.591067e+00 -1.634616e+03)	(1.262269e-02 4.086835e-02 1.272354e+00)
0.00723012    	(-1.651402e+01 5.660520e+00 -1.639036e+03)	(-1.652659e+01 5.619692e+00 -1.640304e+03)	(1.257604e-02 4.082751e-02 1.267760e+00)
0.00730159    	(-1.657277e+01 5.691733e+00 -1.644816e+03)	(-1.658530e+01 5.650949e+00 -1.646079e+03)	(1.252912e-02 4.078338e-02 1.263140e+00)
0.00737323    	(-1.663142e+01 5.724081e+00 -1.650586e+03)	(-1.664391e+01 5.683347e+00 -1.651845e+03)	(1.248970e-02 4.073383e-02 1.259269e+00)
0.00744508    	(-1.670562e+01 5.768088e+00 -1.657880e+03)	(-1.671806e+01 5.727400e+00 -1.659134e+03)	(1.243761e-02 4.068837e-02 1.254134e+00)
0.00751711    	(-1.676965e+01 5.804366e+00 -1.664177e+03)	(-1.678204e+01 5.763724e+00 -1.665426e+03)	(1.238585e-02 4.064177e-02 1.249033e+00)
0.00758936    	(-1.682721e+01 5.833912e+00 -1.669839e+03)	(-1.683954e+01 5.793318e+00 -1.671082e+03)	(1.233265e-02 4.059403e-02 1.243787e+00)
0.00766184    	(-1.690191e+01 5.879256e+00 -1.677178e+03)	(-1.691419e+01 5.838712e+00 -1.678416e+03)	(1.227766e-02 4.054396e-02 1.238362e+00)
0.00773455    	(-1.696873e+01 5.915969e+00 -1.683745e+03)	(-1.698096e+01 5.875476e+00 -1.684977e+03)	(1.222202e-02 4.049221e-02 1.232875e+00)
0.00780754    	(-1.704316e+01 5.960198e+00 -1.691055e+03)	(-1.705533e+01 5.919758e+00 -1.692282e+03)	(1.216652e-02 4.043958e-02 1.227400e+00)
0.00788071    	(-1.710042e+01 5.987672e+00 -1.696688e+03)	(-1.711254e+01 5.947287e+00 -1.697911e+03)	(1.211963e-02 4.038533e-02 1.222785e+00)
0.00795388    	(-1.718453e+01 6.037769e+00 -1.704948e+03)	(-1.719659e+01 5.997436e+00 -1.706165e+03)	(1.205913e-02 4.033302e-02 1.216811e+00)
0.00802705    	(-1.725004e+01 6.075542e+00 -1.711380e+03)	(-1.726203e+01 6.035262e+00 -1.712591e+03)	(1.199621e-02 4.028026e-02 1.210598e+00)
0.00810022    	(-1.731685e+01 6.110249e+00 -1.717951e+03)	(-1.732878e+01 6.070023e+00 -1.719155e+03)	(1.193270e-02 4.022612e-02 1.204324e+00)
0.00817339    	(-1.739141e+01 6.146775e+00 -1.725288e+03)	(-1.740328e+01 6.106604e+00 -1.726486e+03)	(1.186885e-02 4.017125e-02 1.198016e+00)
0.00824656    	(-1.745538e+01 6.178801e+00 -1.731585e+03)	(-1.746719e+01 6.138685e+00 -1.732776e+03)	(1.180563e-02 4.011582e-02 1.191770e+00)
0.00831973    	(-1.751615e+01 6.211000e+00 -1.737556e+03)	(-1.752790e+01 6.170940e+00 -1.738741e+03)	(1.174131e-02 4.005992e-02 1.185416e+00)
0.00839278    	(-1.758105e+01 6.244012e+00 -1.743939e+03)	(-1.759273e+01 6.204010e+00 -1.745118e+03)	(1.167636e-02 4.000208e-02 1.178998e+00)
0.00846577    	(-1.764002e+01 6.269340e+00 -1.749746e+03)	(-1.765164e+01 6.229392e+00 -1.750920e+03)	(1.162213e-02 3.994745e-02 1.173649e+00)
0.00853871    	(-1.769876e+01 6.299791e+00 -1.755522e+03)	(-1.771031e+01 6.259902e+00 -1.756689e+03)	(1.155354e-02 3.988948e-02 1.166866e+00)
0.00861158    	(-1.774928e+01 6.332397e+00 -1.760472e+03)	(-1.776076e+01 6.292567e+00 -1.761632e+03)	(1.148472e-02 3.983008e-02 1.160061e+00)
0.0086844     	(-1.780212e+01 6.360247e+00 -1.765671e+03)	(-1.781354e+01 6.320479e+00 -1.766825e+03)	(1.141506e-02 3.976836e-02 1.153170e+00)
0.00875717    	(-1.785477e+01 6.386536e+00 -1.770853e+03)	(-1.786611e+01 6.346833e+00 -1.771999e+03)	(1.134380e-02 3.970305e-02 1.146120e+00)
0.00882993    	(-1.791063e+01 6.425838e+00 -1.776329e+03)	(-1.792191e+01 6.386191e+00 -1.777468e+03)	(1.127463e-02 3.964720e-02 1.139282e+00)
0.00890269    	(-1.796805e+01 6.460266e+00 -1.781968e+03)	(-1.797926e+01 6.420678e+00 -1.783101e+03)	(1.120628e-02 3.958827e-02 1.132525e+00)
0.00897539    	(-1.802298e+01 6.488017e+00 -1.787377e+03)	(-1.803412e+01 6.448491e+00 -1.788503e+03)	(1.113873e-02 3.952589e-02 1.125845e+00)
0.00904809    	(-1.807174e+01 6.517064e+00 -1.792164e+03)	(-1.808282e+01 6.477603e+00 -1.793283e+03)	(1.107146e-02 3.946079e-02 1.119191e+00)
0.0091208     	(-1.812688e+01 6.556446e+00 -1.797565e+03)	(-1.813788e+01 6.517051e+00 -1.798678e+03)	(1.100477e-02 3.939489e-02 1.112595e+00)
0.0091935     	(-1.816739e+01 6.578053e+00 -1.801549e+03)	(-1.817834e+01 6.538720e+00 -1.802656e+03)	(1.095194e-02 3.933272e-02 1.107383e+00)
0.0092662     	(-1.821253e+01 6.597585e+00 -1.806002e+03)	(-1.822342e+01 6.558324e+00 -1.807103e+03)	(1.088373e-02 3.926180e-02 1.100633e+00)
0.00933891    	(-1.825895e+01 6.633042e+00 -1.810543e+03)	(-1.826977e+01 6.593851e+00 -1.811637e+03)	(1.081710e-02 3.919073e-02 1.094039e+00)
0.0094115     	(-1.829468e+01 6.661172e+00 -1.814042e+03)	(-1.830543e+01 6.622051e+00 -1.815129e+03)	(1.075055e-02 3.912089e-02 1.087455e+00)
0.00948397    	(-1.833369e+01 6.680158e+00 -1.817883e+03)	(-1.834438e+01 6.641108e+00 -1.818964e+03)	(1.068456e-02 3.904987e-02 1.080925e+00)
0.00955638    	(-1.837664e+01 6.710266e+00 -1.822098e+03)	(-1.838726e+01 6.671287e+00 -1.823172e+03)	(1.061929e-02 3.897895e-02 1.074467e+00)
0.00962873    	(-1.839540e+01 6.730221e+00 -1.823924e+03)	(-1.840596e+01 6.691312e+00 -1.824992e+03)	(1.055461e-02 3.890926e-02 1.068067e+00)
0.00970097    	(-1.842192e+01 6.754374e+00 -1.826517e+03)	(-1.843241e+01 6.715533e+00 -1.827578e+03)	(1.049042e-02 3.884119e-02 1.061715e+00)
0.00977315    	(-1.845444e+01 6.773544e+00 -1.829713e+03)	(-1.846487e+01 6.734771e+00 -1.830768e+03)	(1.042677e-02 3.877321e-02 1.055418e+00)
0.00984528    	(-1.849329e+01 6.798687e+00 -1.833530e+03)	(-1.850366e+01 6.759981e+00 -1.834579e+03)	(1.036512e-02 3.870600e-02 1.049319e+00)
0.00991734    	(-1.852842e+01 6.825150e+00 -1.836969e+03)	(-1.853873e+01 6.786510e+00 -1.838012e+03)	(1.030362e-02 3.864021e-02 1.043236e+00)
0.00998935    	(-1.856890e+01 6.852022e+00 -1.840943e+03)	(-1.857914e+01 6.813446e+00 -1.841980e+03)	(1.024229e-02 3.857663e-02 1.037171e+00)
0.0100614     	(-1.861397e+01 6.884012e+00 -1.845357e+03)	(-1.862415e+01 6.845498e+00 -1.846388e+03)	(1.018072e-02 3.851409e-02 1.031082e+00)
0.0101333     	(-1.865056e+01 6.907017e+00 -1.848952e+03)	(-1.866068e+01 6.868566e+00 -1.849977e+03)	(1.011945e-02 3.845065e-02 1.025021e+00)
0.0102053     	(-1.868151e+01 6.929724e+00 -1.851984e+03)	(-1.869157e+01 6.891335e+00 -1.853003e+03)	(1.005847e-02 3.838932e-02 1.018991e+00)
0.0102772     	(-1.872038e+01 6.956001e+00 -1.855799e+03)	(-1.873038e+01 6.917671e+00 -1.856812e+03)	(9.997600e-03 3.832997e-02 1.012972e+00)
0.0103492     	(-1.875569e+01 6.983689e+00 -1.859252e+03)	(-1.876563e+01 6.945416e+00 -1.860259e+03)	(9.937379e-03 3.827260e-02 1.007018e+00)
0.0104211     	(-1.879435e+01 7.006569e+00 -1.863052e+03)	(-1.880423e+01 6.968354e+00 -1.864054e+03)	(9.878598e-03 3.821454e-02 1.001206e+00)
0.010493      	(-1.882817e+01 7.029466e+00 -1.866367e+03)	(-1.883798e+01 6.991309e+00 -1.867362e+03)	(9.819719e-03 3.815662e-02 9.953837e-01)
0.010565      	(-1.886979e+01 7.058719e+00 -1.870446e+03)	(-1.887955e+01 7.020620e+00 -1.871436e+03)	(9.761136e-03 3.809968e-02 9.895915e-01)
0.0106369     	(-1.889769e+01 7.081799e+00 -1.873169e+03)	(-1.890739e+01 7.043755e+00 -1.874153e+03)	(9.703139e-03 3.804439e-02 9.838581e-01)
0.0107089     	(-1.894854e+01 7.108024e+00 -1.878172e+03)	(-1.895819e+01 7.070035e+00 -1.879150e+03)	(9.647720e-03 3.798890e-02 9.783796e-01)
0.0107809     	(-1.898578e+01 7.130336e+00 -1.881826e+03)	(-1.899537e+01 7.092403e+00 -1.882798e+03)	(9.592442e-03 3.793384e-02 9.729151e-01)
0.0108529     	(-1.902496e+01 7.159949e+00 -1.885657e+03)	(-1.903450e+01 7.122069e+00 -1.886625e+03)	(9.538053e-03 3.787999e-02 9.675387e-01)
0.0109249     	(-1.906911e+01 7.190571e+00 -1.889974e+03)	(-1.907859e+01 7.152743e+00 -1.890936e+03)	(9.484572e-03 3.782771e-02 9.622524e-01)
0.0109971     	(-1.912868e+01 7.219178e+00 -1.895838e+03)	(-1.913811e+01 7.181402e+00 -1.896796e+03)	(9.432069e-03 3.777562e-02 9.570616e-01)
0.0110692     	(-1.916491e+01 7.238700e+00 -1.899401e+03)	(-1.917429e+01 7.200975e+00 -1.900352e+03)	(9.379742e-03 3.772471e-02 9.518877e-01)
0.0111414     	(-1.915559e+01 7.244665e+00 -1.898475e+03)	(-1.916492e+01 7.206989e+00 -1.899422e+03)	(9.327149e-03 3.767673e-02 9.466896e-01)
0.0112137     	(-1.918905e+01 7.269370e+00 -1.901747e+03)	(-1.919833e+01 7.231740e+00 -1.902689e+03)	(9.273971e-03 3.762970e-02 9.414340e-01)
0.011286      	(-1.917765e+01 7.269743e+00 -1.900629e+03)	(-1.918687e+01 7.232159e+00 -1.901566e+03)	(9.220544e-03 3.758445e-02 9.361545e-01)
0.0113585     	(-1.918559e+01 7.277635e+00 -1.901408e+03)	(-1.919476e+01 7.240096e+00 -1.902339e+03)	(9.169178e-03 3.753934e-02 9.310770e-01)
0.0114311     	(-1.911821e+01 7.257130e+00 -1.894779e+03)	(-1.912732e+01 7.219634e+00 -1.895705e+03)	(9.117951e-03 3.749505e-02 9.260144e-01)
0.0115037     	(-1.911753e+01 7.267335e+00 -1.894695e+03)	(-1.912660e+01 7.229883e+00 -1.895616e+03)	(9.068613e-03 3.745166e-02 9.211392e-01)
0.0115765     	(-1.912154e+01 7.273788e+00 -1.895093e+03)	(-1.913056e+01 7.236378e+00 -1.896009e+03)	(9.021324e-03 3.741003e-02 9.164676e-01)
0.0116495     	(-1.911448e+01 7.272352e+00 -1.894405e+03)	(-1.912346e+01 7.234984e+00 -1.895317e+03)	(8.975243e-03 3.736814e-02 9.119146e-01)
0.0117225     	(-1.908880e+01 7.271031e+00 -1.891873e+03)	(-1.909773e+01 7.233703e+00 -1.892780e+03)	(8.930687e-03 3.732709e-02 9.075125e-01)
0.0117958     	(-1.905086e+01 7.266705e+00 -1.888124e+03)	(-1.905974e+01 7.229418e+00 -1.889028e+03)	(8.887818e-03 3.728714e-02 9.032778e-01)
0.0118692     	(-1.903487e+01 7.268450e+00 -1.886552e+03)	(-1.904372e+01 7.231201e+00 -1.887451e+03)	(8.846907e-03 3.724838e-02 8.992371e-01)
0.0119427     	(-1.900579e+01 7.262176e+00 -1.883694e+03)	(-1.901460e+01 7.224966e+00 -1.884589e+03)	(8.806815e-03 3.720974e-02 8.952774e-01)
0.0120161     	(-1.895495e+01 7.250529e+00 -1.878690e+03)	(-1.896371e+01 7.213358e+00 -1.879581e+03)	(8.768596e-03 3.717062e-02 8.915021e-01)
0.0120894     	(-1.890631e+01 7.239913e+00 -1.873897e+03)	(-1.891504e+01 7.202781e+00 -1.874785e+03)	(8.732497e-03 3.713170e-02 8.879360e-01)
0.0121626     	(-1.887034e+01 7.235340e+00 -1.870358e+03)	(-1.887904e+01 7.198247e+00 -1.871243e+03)	(8.698846e-03 3.709292e-02 8.846110e-01)
0.0122358     	(-1.883157e+01 7.228144e+00 -1.866542e+03)	(-1.884024e+01 7.191090e+00 -1.867424e+03)	(8.666310e-03 3.705427e-02 8.813964e-01)
0.012309      	(-1.879438e+01 7.221199e+00 -1.862887e+03)	(-1.880302e+01 7.184184e+00 -1.863766e+03)	(8.634476e-03 3.701465e-02 8.782502e-01)
0.0123822     	(-1.874663e+01 7.210883e+00 -1.858184e+03)	(-1.875524e+01 7.173907e+00 -1.859060e+03)	(8.603629e-03 3.697600e-02 8.752016e-01)
0.0124552     	(-1.871266e+01 7.207582e+00 -1.854838e+03)	(-1.872123e+01 7.170644e+00 -1.855710e+03)	(8.573344e-03 3.693809e-02 8.722084e-01)
0.0125283     	(-1.868721e+01 7.205628e+00 -1.852328e+03)	(-1.869575e+01 7.168727e+00 -1.853198e+03)	(8.543254e-03 3.690035e-02 8.692342e-01)
0.0126013     	(-1.868535e+01 7.214539e+00 -1.852141e+03)	(-1.869386e+01 7.177677e+00 -1.853007e+03)	(8.512339e-03 3.686239e-02 8.661782e-01)
0.0126743     	(-1.868453e+01 7.223134e+00 -1.852051e+03)	(-1.869301e+01 7.186311e+00 -1.852914e+03)	(8.480698e-03 3.682251e-02 8.630486e-01)
0.0127474     	(-1.872990e+01 7.250758e+00 -1.856504e+03)	(-1.873834e+01 7.213978e+00 -1.857364e+03)	(8.447976e-03 3.677989e-02 8.598098e-01)
0.0128203     	(-1.873846e+01 7.264889e+00 -1.857327e+03)	(-1.874687e+01 7.228155e+00 -1.858183e+03)	(8.413261e-03 3.673477e-02 8.563725e-01)
0.0128933     	(-1.878410e+01 7.290396e+00 -1.861811e+03)	(-1.879248e+01 7.253709e+00 -1.862664e+03)	(8.377001e-03 3.668709e-02 8.527809e-01)
0.0129662     	(-1.877225e+01 7.291056e+00 -1.860638e+03)	(-1.878059e+01 7.254420e+00 -1.861486e+03)	(8.336865e-03 3.663585e-02 8.488058e-01)
0.0130392     	(-1.875543e+01 7.295781e+00 -1.858964e+03)	(-1.876372e+01 7.259198e+00 -1.859809e+03)	(8.294122e-03 3.658304e-02 8.445731e-01)
0.0131122     	(-1.875722e+01 7.305990e+00 -1.859121e+03)	(-1.876547e+01 7.269462e+00 -1.859961e+03)	(8.250455e-03 3.652871e-02 8.402479e-01)
0.0131852     	(-1.872614e+01 7.297161e+00 -1.856066e+03)	(-1.873435e+01 7.260688e+00 -1.856902e+03)	(8.204603e-03 3.647310e-02 8.357073e-01)
0.0132582     	(-1.878456e+01 7.332352e+00 -1.861784e+03)	(-1.879272e+01 7.295936e+00 -1.862615e+03)	(8.158354e-03 3.641566e-02 8.311259e-01)
0.0133312     	(-1.883428e+01 7.364658e+00 -1.866648e+03)	(-1.884239e+01 7.328301e+00 -1.867475e+03)	(8.111544e-03 3.635641e-02 8.264874e-01)
0.0134043     	(-1.888760e+01 7.395683e+00 -1.871865e+03)	(-1.889566e+01 7.359388e+00 -1.872687e+03)	(8.064735e-03 3.629508e-02 8.218471e-01)
0.0134774     	(-1.895094e+01 7.427949e+00 -1.878082e+03)	(-1.895896e+01 7.391717e+00 -1.878899e+03)	(8.017618e-03 3.623173e-02 8.171746e-01)
0.0135505     	(-1.902962e+01 7.468619e+00 -1.885793e+03)	(-1.903759e+01 7.432452e+00 -1.886605e+03)	(7.969941e-03 3.616631e-02 8.124446e-01)
0.0136237     	(-1.912364e+01 7.512757e+00 -1.895023e+03)	(-1.913156e+01 7.476659e+00 -1.895830e+03)	(7.921096e-03 3.609851e-02 8.075974e-01)
0.0136969     	(-1.919915e+01 7.552439e+00 -1.902416e+03)	(-1.920703e+01 7.516411e+00 -1.903219e+03)	(7.871508e-03 3.602800e-02 8.026744e-01)
0.0137701     	(-1.928430e+01 7.595221e+00 -1.910764e+03)	(-1.929212e+01 7.559267e+00 -1.911562e+03)	(7.820997e-03 3.595475e-02 7.976577e-01)
0.0138433     	(-1.936410e+01 7.637825e+00 -1.918575e+03)	(-1.937187e+01 7.601946e+00 -1.919368e+03)	(7.769629e-03 3.587900e-02 7.925541e-01)
0.0139163     	(-1.947498e+01 7.687056e+00 -1.929467e+03)	(-1.948270e+01 7.651255e+00 -1.930254e+03)	(7.717513e-03 3.580049e-02 7.873741e-01)
0.0139894     	(-1.957309e+01 7.734869e+00 -1.939085e+03)	(-1.958075e+01 7.699149e+00 -1.939867e+03)	(7.664643e-03 3.572002e-02 7.821180e-01)
0.0140624     	(-1.968074e+01 7.786881e+00 -1.949647e+03)	(-1.968835e+01 7.751244e+00 -1.950424e+03)	(7.611011e-03 3.563657e-02 7.767840e-01)
0.0141354     	(-1.976799e+01 7.836000e+00 -1.958181e+03)	(-1.977555e+01 7.800450e+00 -1.958952e+03)	(7.556634e-03 3.555033e-02 7.713744e-01)
0.0142084     	(-1.988032e+01 7.888854e+00 -1.969206e+03)	(-1.988783e+01 7.853393e+00 -1.969972e+03)	(7.501299e-03 3.546064e-02 7.658675e-01)
0.0142814     	(-1.998405e+01 7.937473e+00 -1.979381e+03)	(-1.999149e+01 7.902105e+00 -1.980142e+03)	(7.444716e-03 3.536785e-02 7.602349e-01)
0.0143542     	(-2.010629e+01 7.993511e+00 -1.991385e+03)	(-2.011368e+01 7.958239e+00 -1.992139e+03)	(7.387176e-03 3.527221e-02 7.545054e-01)
0.0144271     	(-2.019032e+01 8.042595e+00 -1.999598e+03)	(-2.019764e+01 8.007420e+00 -2.000347e+03)	(7.329366e-03 3.517452e-02 7.487474e-01)
0.0145        	(-2.029681e+01 8.096950e+00 -2.010038e+03)	(-2.030408e+01 8.061875e+00 -2.010781e+03)	(7.269658e-03 3.507435e-02 7.428002e-01)
0.0145728     	(-2.041528e+01 8.153791e+00 -2.021657e+03)	(-2.042249e+01 8.118820e+00 -2.022394e+03)	(7.207758e-03 3.497082e-02 7.366340e-01)