# Moment      
# CofR        : (5.000000e+00 5.000000e-03 0.000000e+00)
#
# Time        	(total_x total_y total_z)	(pressure_x pressure_y pressure_z)	(viscous_x viscous_y viscous_z)
1.20005e-05   	(-6.107426e+03 3.049866e+03 -6.033072e+05)	(-6.107429e+03 3.049823e+03 -6.033075e+05)	(3.546302e-03 4.274003e-02 3.646014e-01)
2.64017e-05   	(-1.675415e+02 1.063163e+02 -1.655549e+04)	(-1.675460e+02 1.062741e+02 -1.655594e+04)	(4.439916e-03 4.219430e-02 4.529319e-01)
4.36833e-05   	(-2.530655e+01 1.921031e+01 -2.497817e+03)	(-2.531141e+01 1.916801e+01 -2.498311e+03)	(4.856870e-03 4.229223e-02 4.941446e-01)
6.44211e-05   	(-1.232302e+01 6.168303e+00 -1.220345e+03)	(-1.232808e+01 6.125799e+00 -1.220859e+03)	(5.058912e-03 4.250359e-02 5.141067e-01)
8.93055e-05   	(-9.253056e+00 2.889805e+00 -9.187182e+02)	(-9.258249e+00 2.847034e+00 -9.192456e+02)	(5.193300e-03 4.277014e-02 5.273874e-01)
0.000119165   	(-9.048160e+00 2.431245e+00 -8.987079e+02)	(-9.053456e+00 2.388144e+00 -8.992455e+02)	(5.296197e-03 4.310048e-02 5.375675e-01)
0.00015499    	(-9.408431e+00 2.853305e+00 -9.338967e+02)	(-9.413814e+00 2.809785e+00 -9.344428e+02)	(5.383014e-03 4.351999e-02 5.461750e-01)
0.000197066   	(-9.684602e+00 3.260133e+00 -9.609074e+02)	(-9.690059e+00 3.216090e+00 -9.614609e+02)	(5.456489e-03 4.404335e-02 5.534779e-01)
0.000245373   	(-1.010530e+01 3.571850e+00 -1.002448e+03)	(-1.011082e+01 3.527198e+00 -1.003007e+03)	(5.517202e-03 4.465179e-02 5.595304e-01)
0.000299914   	(-1.072685e+01 3.872904e+00 -1.063893e+03)	(-1.073243e+01 3.827566e+00 -1.064458e+03)	(5.576330e-03 4.533840e-02 5.654482e-01)
0.000360669   	(-1.120630e+01 4.083076e+00 -1.111338e+03)	(-1.121194e+01 4.037008e+00 -1.111911e+03)	(5.642564e-03 4.606837e-02 5.720966e-01)
0.000422596   	(-1.149057e+01 4.191197e+00 -1.139580e+03)	(-1.149629e+01 4.144431e+00 -1.140160e+03)	(5.725400e-03 4.676602e-02 5.804151e-01)
0.000484292   	(-1.136733e+01 4.172409e+00 -1.127526e+03)	(-1.137316e+01 4.124999e+00 -1.128117e+03)	(5.836530e-03 4.740996e-02 5.915670e-01)
0.000544241   	(-1.113394e+01 4.096479e+00 -1.104535e+03)	(-1.113993e+01 4.048488e+00 -1.105141e+03)	(5.985474e-03 4.799166e-02 6.064956e-01)
0.000601432   	(-1.094807e+01 4.014932e+00 -1.086269e+03)	(-1.095424e+01 3.966417e+00 -1.086894e+03)	(6.169568e-03 4.851454e-02 6.249321e-01)
0.000656167   	(-1.078989e+01 3.944729e+00 -1.070770e+03)	(-1.079627e+01 3.895739e+00 -1.071416e+03)	(6.379578e-03 4.899076e-02 6.459550e-01)
0.000709122   	(-1.055483e+01 3.845912e+00 -1.047676e+03)	(-1.056143e+01 3.796481e+00 -1.048345e+03)	(6.605560e-03 4.943051e-02 6.685733e-01)
0.000760702   	(-1.029425e+01 3.744248e+00 -1.022013e+03)	(-1.030109e+01 3.694408e+00 -1.022705e+03)	(6.840577e-03 4.983909e-02 6.920959e-01)
0.000811205   	(-1.007187e+01 3.663671e+00 -1.000073e+03)	(-1.007895e+01 3.613450e+00 -1.000789e+03)	(7.079704e-03 5.022060e-02 7.160310e-01)
0.000861024   	(-9.917011e+00 3.600625e+00 -9.848009e+02)	(-9.924333e+00 3.550048e+00 -9.855411e+02)	(7.321599e-03 5.057712e-02 7.402427e-01)
0.000910396   	(-9.820821e+00 3.550709e+00 -9.753276e+02)	(-9.828387e+00 3.499796e+00 -9.760923e+02)	(7.565602e-03 5.091239e-02 7.646634e-01)
0.000959523   	(-9.837063e+00 3.537151e+00 -9.769056e+02)	(-9.844874e+00 3.485920e+00 -9.776948e+02)	(7.810629e-03 5.123097e-02 7.891843e-01)
0.0010087     	(-9.931783e+00 3.524532e+00 -9.862657e+02)	(-9.939840e+00 3.472996e+00 -9.870795e+02)	(8.056913e-03 5.153647e-02 8.138277e-01)
0.00105815    	(-1.015252e+01 3.498139e+00 -1.008145e+03)	(-1.016082e+01 3.446309e+00 -1.008984e+03)	(8.303522e-03 5.183038e-02 8.384998e-01)
0.00110802    	(-1.070659e+01 3.465048e+00 -1.063074e+03)	(-1.071514e+01 3.412936e+00 -1.063937e+03)	(8.551675e-03 5.211231e-02 8.633182e-01)
0.00115857    	(-1.215033e+01 3.478802e+00 -1.206141e+03)	(-1.215913e+01 3.426425e+00 -1.207029e+03)	(8.798557e-03 5.237703e-02 8.879985e-01)
0.00120905    	(-1.462345e+01 3.532666e+00 -1.451326e+03)	(-1.463249e+01 3.480055e+00 -1.452238e+03)	(9.036650e-03 5.261032e-02 9.117829e-01)
0.00125895    	(-1.587887e+01 3.416938e+00 -1.576150e+03)	(-1.588815e+01 3.364105e+00 -1.577086e+03)	(9.274949e-03 5.283299e-02 9.355678e-01)
0.00130839    	(-1.365807e+01 3.057420e+00 -1.356729e+03)	(-1.366762e+01 3.004316e+00 -1.357692e+03)	(9.548158e-03 5.310432e-02 9.628172e-01)
0.00135752    	(-1.142376e+01 2.641481e+00 -1.135799e+03)	(-1.143365e+01 2.588038e+00 -1.136796e+03)	(9.889210e-03 5.344283e-02 9.967961e-01)
0.00140645    	(-1.036813e+01 2.244939e+00 -1.031684e+03)	(-1.037843e+01 2.191098e+00 -1.032722e+03)	(1.030206e-02 5.384169e-02 1.037887e+00)
0.00145526    	(-9.410026e+00 1.865315e+00 -9.371376e+02)	(-9.420758e+00 1.811021e+00 -9.382182e+02)	(1.073150e-02 5.429312e-02 1.080628e+00)
0.00150407    	(-8.638439e+00 1.473201e+00 -8.610678e+02)	(-8.649558e+00 1.418425e+00 -8.621870e+02)	(1.111925e-02 5.477599e-02 1.119249e+00)
0.00155295    	(-7.831258e+00 9.507023e-01 -7.817093e+02)	(-7.842736e+00 8.954132e-01 -7.828643e+02)	(1.147831e-02 5.528906e-02 1.155039e+00)
0.001602      	(-6.643555e+00 1.014171e-01 -6.650823e+02)	(-6.655354e+00 4.561985e-02 -6.662694e+02)	(1.179950e-02 5.579723e-02 1.187078e+00)
0.0016513     	(-3.827780e+00 -1.816761e+00 -3.884513e+02)	(-3.839824e+00 -1.873021e+00 -3.896627e+02)	(1.204348e-02 5.626052e-02 1.211457e+00)
0.00170094    	(1.697759e+00 -5.540914e+00 1.544587e+02)	(1.685608e+00 -5.597522e+00 1.532364e+02)	(1.215114e-02 5.660867e-02 1.222317e+00)
0.00175109    	(3.866173e+00 -6.621165e+00 3.683233e+02)	(3.854000e+00 -6.678048e+00 3.670986e+02)	(1.217303e-02 5.688309e-02 1.224670e+00)
0.00180184    	(-2.288949e+00 -1.999697e+00 -2.352865e+02)	(-2.301212e+00 -2.056956e+00 -2.365202e+02)	(1.226239e-02 5.725967e-02 1.233719e+00)
0.00185286    	(-6.563273e+00 7.410346e-01 -6.552705e+02)	(-6.575676e+00 6.833876e-01 -6.565183e+02)	(1.240253e-02 5.764710e-02 1.247791e+00)
0.00190376    	(-7.732693e+00 1.301920e+00 -7.704768e+02)	(-7.745237e+00 1.243914e+00 -7.717389e+02)	(1.254419e-02 5.800517e-02 1.262007e+00)
0.00195443    	(-7.906339e+00 1.410814e+00 -7.875418e+02)	(-7.919017e+00 1.352469e+00 -7.888172e+02)	(1.267788e-02 5.834531e-02 1.275429e+00)
0.00200513    	(-7.978745e+00 1.456941e+00 -7.946475e+02)	(-7.991551e+00 1.398261e+00 -7.959358e+02)	(1.280605e-02 5.867985e-02 1.288301e+00)
0.00205582    	(-8.051467e+00 1.492975e+00 -8.017954e+02)	(-8.064387e+00 1.433987e+00 -8.030951e+02)	(1.291994e-02 5.898866e-02 1.299757e+00)
0.00210654    	(-8.107314e+00 1.525142e+00 -8.072874e+02)	(-8.120342e+00 1.465855e+00 -8.085981e+02)	(1.302791e-02 5.928716e-02 1.310623e+00)
0.00215742    	(-8.185700e+00 1.568265e+00 -8.150099e+02)	(-8.198829e+00 1.508696e+00 -8.163307e+02)	(1.312903e-02 5.956850e-02 1.320809e+00)
0.00220836    	(-8.294325e+00 1.625235e+00 -8.257222e+02)	(-8.307549e+00 1.565406e+00 -8.270526e+02)	(1.322398e-02 5.982948e-02 1.330381e+00)
0.00225953    	(-8.393697e+00 1.676354e+00 -8.355248e+02)	(-8.407014e+00 1.616271e+00 -8.368645e+02)	(1.331648e-02 6.008246e-02 1.339710e+00)
0.00231076    	(-8.511424e+00 1.741660e+00 -8.471390e+02)	(-8.524829e+00 1.681341e+00 -8.484877e+02)	(1.340560e-02 6.031921e-02 1.348704e+00)
0.00236225    	(-8.649530e+00 1.811271e+00 -8.607598e+02)	(-8.663021e+00 1.750744e+00 -8.621171e+02)	(1.349084e-02 6.052691e-02 1.357310e+00)
0.00241381    	(-8.768791e+00 1.867536e+00 -8.725344e+02)	(-8.782364e+00 1.806815e+00 -8.739001e+02)	(1.357375e-02 6.072083e-02 1.365686e+00)
0.00246558    	(-8.886003e+00 1.922674e+00 -8.841085e+02)	(-8.899661e+00 1.861767e+00 -8.854827e+02)	(1.365799e-02 6.090642e-02 1.374193e+00)
0.00251746    	(-8.976186e+00 1.967989e+00 -8.930119e+02)	(-8.989927e+00 1.906911e+00 -8.943946e+02)	(1.374173e-02 6.107776e-02 1.382652e+00)
0.00256947    	(-9.050628e+00 2.001329e+00 -9.003648e+02)	(-9.064451e+00 1.940091e+00 -9.017558e+02)	(1.382361e-02 6.123775e-02 1.390924e+00)
0.00262155    	(-9.071416e+00 2.013180e+00 -9.024309e+02)	(-9.085322e+00 1.951790e+00 -9.038301e+02)	(1.390516e-02 6.139045e-02 1.399164e+00)
0.00267359    	(-9.114256e+00 2.032380e+00 -9.066657e+02)	(-9.128243e+00 1.970839e+00 -9.080731e+02)	(1.398717e-02 6.154090e-02 1.407449e+00)
0.00272561    	(-9.160544e+00 2.048844e+00 -9.112438e+02)	(-9.174607e+00 1.987172e+00 -9.126590e+02)	(1.406385e-02 6.167138e-02 1.415201e+00)
0.00277763    	(-9.198037e+00 2.061560e+00 -9.149545e+02)	(-9.212175e+00 1.999765e+00 -9.163772e+02)	(1.413794e-02 6.179452e-02 1.422696e+00)
0.00282965    	(-9.214134e+00 2.064468e+00 -9.165521e+02)	(-9.228349e+00 2.002544e+00 -9.179826e+02)	(1.421509e-02 6.192424e-02 1.430495e+00)
0.00288167    	(-9.226922e+00 2.065661e+00 -9.178274e+02)	(-9.241208e+00 2.003620e+00 -9.192651e+02)	(1.428578e-02 6.204102e-02 1.437650e+00)
0.00293371    	(-9.235816e+00 2.064678e+00 -9.187181e+02)	(-9.250169e+00 2.002523e+00 -9.201627e+02)	(1.435390e-02 6.215580e-02 1.444549e+00)
0.00298579    	(-9.250494e+00 2.068188e+00 -9.201774e+02)	(-9.264916e+00 2.005920e+00 -9.216288e+02)	(1.442149e-02 6.226868e-02 1.451393e+00)
0.00303789    	(-9.247116e+00 2.060863e+00 -9.198536e+02)	(-9.261607e+00 1.998476e+00 -9.213120e+02)	(1.449055e-02 6.238753e-02 1.458385e+00)
0.00309002    	(-9.253911e+00 2.056112e+00 -9.205364e+02)	(-9.268464e+00 1.993612e+00 -9.220012e+02)	(1.455333e-02 6.250076e-02 1.464750e+00)
0.00314218    	(-9.263748e+00 2.055116e+00 -9.215153e+02)	(-9.278363e+00 1.992504e+00 -9.229863e+02)	(1.461528e-02 6.261231e-02 1.471030e+00)
0.00319436    	(-9.268027e+00 2.052762e+00 -9.219487e+02)	(-9.282700e+00 1.990044e+00 -9.234256e+02)	(1.467281e-02 6.271863e-02 1.476872e+00)
0.00324661    	(-9.270492e+00 2.046170e+00 -9.222042e+02)	(-9.285228e+00 1.983337e+00 -9.236874e+02)	(1.473540e-02 6.283277e-02 1.483216e+00)
0.00329888    	(-9.287604e+00 2.049561e+00 -9.239026e+02)	(-9.302395e+00 1.986621e+00 -9.253915e+02)	(1.479138e-02 6.294030e-02 1.488901e+00)
0.00335101    	(-9.299228e+00 2.047056e+00 -9.250657e+02)	(-9.314075e+00 1.984007e+00 -9.265602e+02)	(1.484662e-02 6.304934e-02 1.494511e+00)
0.00340314    	(-9.323132e+00 2.050751e+00 -9.274389e+02)	(-9.338032e+00 1.987592e+00 -9.289388e+02)	(1.489960e-02 6.315852e-02 1.499895e+00)
0.00345521    	(-9.344150e+00 2.056176e+00 -9.295226e+02)	(-9.359110e+00 1.992910e+00 -9.310286e+02)	(1.496039e-02 6.326607e-02 1.506058e+00)
0.0035072     	(-9.351748e+00 2.052379e+00 -9.302866e+02)	(-9.366754e+00 1.989019e+00 -9.317973e+02)	(1.500609e-02 6.335983e-02 1.510715e+00)
0.00355922    	(-9.377876e+00 2.057460e+00 -9.328791e+02)	(-9.392933e+00 1.994003e+00 -9.343950e+02)	(1.505722e-02 6.345766e-02 1.515914e+00)
0.0036111     	(-9.401444e+00 2.063469e+00 -9.352144e+02)	(-9.416557e+00 1.999886e+00 -9.367359e+02)	(1.511284e-02 6.358282e-02 1.521555e+00)
0.00366297    	(-9.405426e+00 2.052974e+00 -9.356268e+02)	(-9.420581e+00 1.989294e+00 -9.371527e+02)	(1.515538e-02 6.367942e-02 1.525896e+00)
0.00371474    	(-9.434338e+00 2.061345e+00 -9.384867e+02)	(-9.449536e+00 1.997568e+00 -9.400169e+02)	(1.519822e-02 6.377730e-02 1.530265e+00)
0.00376601    	(-9.451615e+00 2.065070e+00 -9.402036e+02)	(-9.466855e+00 2.001196e+00 -9.417381e+02)	(1.523926e-02 6.387411e-02 1.534454e+00)
0.00381677    	(-9.468327e+00 2.063259e+00 -9.418659e+02)	(-9.483605e+00 1.999290e+00 -9.434044e+02)	(1.527817e-02 6.396914e-02 1.538431e+00)
0.0038672     	(-9.492567e+00 2.068679e+00 -9.442668e+02)	(-9.507886e+00 2.004611e+00 -9.458094e+02)	(1.531895e-02 6.406796e-02 1.542592e+00)
0.00391754    	(-9.537205e+00 2.084469e+00 -9.486786e+02)	(-9.552565e+00 2.020302e+00 -9.502254e+02)	(1.535997e-02 6.416726e-02 1.546776e+00)
0.00396787    	(-9.540528e+00 2.076395e+00 -9.490235e+02)	(-9.555932e+00 2.012128e+00 -9.505748e+02)	(1.540459e-02 6.426629e-02 1.551320e+00)
0.00401825    	(-9.568529e+00 2.084204e+00 -9.517946e+02)	(-9.583975e+00 2.019839e+00 -9.533501e+02)	(1.544609e-02 6.436573e-02 1.555553e+00)
0.00406874    	(-9.601252e+00 2.095125e+00 -9.550293e+02)	(-9.616733e+00 2.030662e+00 -9.565885e+02)	(1.548176e-02 6.446275e-02 1.559203e+00)
0.00411939    	(-9.620759e+00 2.096105e+00 -9.569685e+02)	(-9.636274e+00 2.031548e+00 -9.585311e+02)	(1.551559e-02 6.455723e-02 1.562671e+00)
0.0041702     	(-9.637246e+00 2.095563e+00 -9.586072e+02)	(-9.652794e+00 2.030913e+00 -9.601732e+02)	(1.554854e-02 6.464941e-02 1.566051e+00)
0.00422123    	(-9.657525e+00 2.098990e+00 -9.606155e+02)	(-9.673107e+00 2.034244e+00 -9.621850e+02)	(1.558189e-02 6.474631e-02 1.569471e+00)
0.00427253    	(-9.685620e+00 2.104814e+00 -9.633984e+02)	(-9.701236e+00 2.039973e+00 -9.649714e+02)	(1.561605e-02 6.484045e-02 1.572970e+00)
0.00432361    	(-9.679850e+00 2.094864e+00 -9.628436e+02)	(-9.695499e+00 2.029931e+00 -9.644200e+02)	(1.564940e-02 6.493322e-02 1.576389e+00)
0.00437424    	(-9.692100e+00 2.091605e+00 -9.640674e+02)	(-9.707783e+00 2.026576e+00 -9.656472e+02)	(1.568279e-02 6.502898e-02 1.579812e+00)
0.00442449    	(-9.718428e+00 2.099470e+00 -9.666728e+02)	(-9.734145e+00 2.034349e+00 -9.682561e+02)	(1.571656e-02 6.512022e-02 1.583271e+00)
0.00447442    	(-9.728658e+00 2.095468e+00 -9.676985e+02)	(-9.744409e+00 2.030253e+00 -9.692853e+02)	(1.575096e-02 6.521567e-02 1.586792e+00)
0.0045241     	(-9.733798e+00 2.088508e+00 -9.682245e+02)	(-9.749584e+00 2.023203e+00 -9.698148e+02)	(1.578567e-02 6.530512e-02 1.590345e+00)
0.00457357    	(-9.764753e+00 2.095198e+00 -9.712934e+02)	(-9.780566e+00 2.029804e+00 -9.728865e+02)	(1.581232e-02 6.539388e-02 1.593093e+00)
0.00462286    	(-9.804599e+00 2.110372e+00 -9.752301e+02)	(-9.820437e+00 2.044894e+00 -9.768259e+02)	(1.583816e-02 6.547767e-02 1.595758e+00)
0.00467199    	(-9.831918e+00 2.115555e+00 -9.779385e+02)	(-9.847782e+00 2.049997e+00 -9.795369e+02)	(1.586335e-02 6.555779e-02 1.598358e+00)
0.00472096    	(-9.858390e+00 2.119866e+00 -9.805650e+02)	(-9.874279e+00 2.054223e+00 -9.821660e+02)	(1.588871e-02 6.564245e-02 1.600972e+00)
0.00476977    	(-9.910176e+00 2.139349e+00 -9.856806e+02)	(-9.926089e+00 2.073623e+00 -9.872841e+02)	(1.591342e-02 6.572527e-02 1.603521e+00)
0.00481843    	(-9.949185e+00 2.151653e+00 -9.895385e+02)	(-9.965122e+00 2.085850e+00 -9.911443e+02)	(1.593617e-02 6.580275e-02 1.605874e+00)
0.00486696    	(-9.973405e+00 2.155424e+00 -9.919417e+02)	(-9.989365e+00 2.089544e+00 -9.935501e+02)	(1.596031e-02 6.588023e-02 1.608365e+00)
0.0049154     	(-1.000065e+01 2.163855e+00 -9.946412e+02)	(-1.001664e+01 2.097898e+00 -9.962521e+02)	(1.598437e-02 6.595714e-02 1.610846e+00)
0.00496379    	(-1.003922e+01 2.178001e+00 -9.984500e+02)	(-1.005523e+01 2.111966e+00 -1.000064e+03)	(1.601031e-02 6.603528e-02 1.613516e+00)
0.00501216    	(-1.005917e+01 2.182514e+00 -1.000427e+03)	(-1.007520e+01 2.116412e+00 -1.002043e+03)	(1.602926e-02 6.610251e-02 1.615486e+00)
0.00506052    	(-1.007759e+01 2.183065e+00 -1.002261e+03)	(-1.009364e+01 2.116893e+00 -1.003879e+03)	(1.604818e-02 6.617253e-02 1.617454e+00)
0.00510894    	(-1.011151e+01 2.198271e+00 -1.005607e+03)	(-1.012759e+01 2.132032e+00 -1.007227e+03)	(1.607256e-02 6.623844e-02 1.619966e+00)
0.00515742    	(-1.013654e+01 2.204108e+00 -1.008085e+03)	(-1.015263e+01 2.137808e+00 -1.009706e+03)	(1.608632e-02 6.630040e-02 1.621418e+00)
0.00520601    	(-1.016611e+01 2.215364e+00 -1.011004e+03)	(-1.018221e+01 2.149003e+00 -1.012627e+03)	(1.609948e-02 6.636110e-02 1.622811e+00)
0.00525472    	(-1.019472e+01 2.222387e+00 -1.013838e+03)	(-1.021084e+01 2.155962e+00 -1.015462e+03)	(1.611266e-02 6.642408e-02 1.624205e+00)
0.00530359    	(-1.022630e+01 2.235914e+00 -1.016951e+03)	(-1.024242e+01 2.169429e+00 -1.018576e+03)	(1.612274e-02 6.648467e-02 1.625290e+00)
0.00535263    	(-1.025838e+01 2.242035e+00 -1.020128e+03)	(-1.027451e+01 2.175496e+00 -1.021754e+03)	(1.612829e-02 6.653930e-02 1.625925e+00)
0.00540184    	(-1.028410e+01 2.247164e+00 -1.022676e+03)	(-1.030023e+01 2.180568e+00 -1.024302e+03)	(1.613414e-02 6.659616e-02 1.626588e+00)
0.00545127    	(-1.032507e+01 2.263812e+00 -1.026718e+03)	(-1.034121e+01 2.197153e+00 -1.028345e+03)	(1.614468e-02 6.665993e-02 1.627719e+00)
0.0055009     	(-1.035111e+01 2.270464e+00 -1.029296e+03)	(-1.036725e+01 2.203752e+00 -1.030924e+03)	(1.614663e-02 6.671146e-02 1.627995e+00)
0.00555074    	(-1.037706e+01 2.274750e+00 -1.031870e+03)	(-1.039320e+01 2.207990e+00 -1.033498e+03)	(1.614498e-02 6.675982e-02 1.627912e+00)
0.00560082    	(-1.039903e+01 2.278930e+00 -1.034050e+03)	(-1.041518e+01 2.212118e+00 -1.035678e+03)	(1.614400e-02 6.681146e-02 1.627894e+00)
0.00565114    	(-1.043785e+01 2.295961e+00 -1.037878e+03)	(-1.045399e+01 2.229101e+00 -1.039506e+03)	(1.614044e-02 6.686042e-02 1.627620e+00)
0.0057013     	(-1.046804e+01 2.302109e+00 -1.040870e+03)	(-1.048417e+01 2.235207e+00 -1.042497e+03)	(1.613383e-02 6.690246e-02 1.627042e+00)
0.0057513     	(-1.048956e+01 2.305620e+00 -1.043006e+03)	(-1.050569e+01 2.238676e+00 -1.044633e+03)	(1.613454e-02 6.694402e-02 1.627193e+00)
0.00580114    	(-1.053401e+01 2.326418e+00 -1.047388e+03)	(-1.055014e+01 2.259428e+00 -1.049014e+03)	(1.612584e-02 6.698966e-02 1.626404e+00)
0.00585087    	(-1.057487e+01 2.340378e+00 -1.051425e+03)	(-1.059098e+01 2.273348e+00 -1.053050e+03)	(1.611538e-02 6.702950e-02 1.625439e+00)
0.00590045    	(-1.060662e+01 2.350084e+00 -1.054562e+03)	(-1.062272e+01 2.283021e+00 -1.056186e+03)	(1.610279e-02 6.706364e-02 1.624261e+00)
0.0059499     	(-1.064403e+01 2.360192e+00 -1.058262e+03)	(-1.066012e+01 2.293093e+00 -1.059885e+03)	(1.609160e-02 6.709902e-02 1.623220e+00)
0.00599922    	(-1.069594e+01 2.385562e+00 -1.063375e+03)	(-1.071201e+01 2.318431e+00 -1.064997e+03)	(1.607965e-02 6.713117e-02 1.622103e+00)
0.00604846    	(-1.072666e+01 2.391526e+00 -1.066416e+03)	(-1.074273e+01 2.324360e+00 -1.068038e+03)	(1.607107e-02 6.716624e-02 1.621321e+00)
0.0060976     	(-1.076148e+01 2.403880e+00 -1.069855e+03)	(-1.077753e+01 2.336692e+00 -1.071475e+03)	(1.605490e-02 6.718811e-02 1.619782e+00)
0.00614666    	(-1.081788e+01 2.428267e+00 -1.075415e+03)	(-1.083392e+01 2.361059e+00 -1.077033e+03)	(1.604096e-02 6.720844e-02 1.618462e+00)
0.00619564    	(-1.084754e+01 2.438859e+00 -1.078344e+03)	(-1.086357e+01 2.371636e+00 -1.079961e+03)	(1.602587e-02 6.722297e-02 1.617027e+00)
0.00624455    	(-1.087463e+01 2.442843e+00 -1.081029e+03)	(-1.089064e+01 2.375613e+00 -1.082645e+03)	(1.600810e-02 6.723045e-02 1.615325e+00)
0.00629336    	(-1.091129e+01 2.457855e+00 -1.084646e+03)	(-1.092728e+01 2.390617e+00 -1.086259e+03)	(1.599308e-02 6.723750e-02 1.613894e+00)
0.00634209    	(-1.096796e+01 2.486240e+00 -1.090221e+03)	(-1.098393e+01 2.418996e+00 -1.091834e+03)	(1.597637e-02 6.724415e-02 1.612295e+00)
0.00639076    	(-1.098629e+01 2.488864e+00 -1.092038e+03)	(-1.100224e+01 2.421617e+00 -1.093649e+03)	(1.595736e-02 6.724731e-02 1.610466e+00)
0.00643939    	(-1.102624e+01 2.502361e+00 -1.095983e+03)	(-1.104218e+01 2.435114e+00 -1.097591e+03)	(1.593791e-02 6.724687e-02 1.608592e+00)
0.00648797    	(-1.107062e+01 2.521335e+00 -1.100358e+03)	(-1.108655e+01 2.454094e+00 -1.101966e+03)	(1.592780e-02 6.724100e-02 1.607646e+00)
0.00653652    	(-1.111187e+01 2.539741e+00 -1.104420e+03)	(-1.112778e+01 2.472505e+00 -1.106025e+03)	(1.590905e-02 6.723560e-02 1.605838e+00)
0.00658502    	(-1.114324e+01 2.546573e+00 -1.107523e+03)	(-1.115913e+01 2.479346e+00 -1.109127e+03)	(1.589418e-02 6.722752e-02 1.604419e+00)
0.00663348    	(-1.118655e+01 2.563064e+00 -1.111795e+03)	(-1.120243e+01 2.495850e+00 -1.113398e+03)	(1.587395e-02 6.721397e-02 1.602461e+00)
0.00668188    	(-1.124680e+01 2.591760e+00 -1.117726e+03)	(-1.126266e+01 2.524560e+00 -1.119326e+03)	(1.585349e-02 6.719998e-02 1.600479e+00)
0.00673023    	(-1.127603e+01 2.600116e+00 -1.120612e+03)	(-1.129186e+01 2.532935e+00 -1.122210e+03)	(1.582950e-02 6.718131e-02 1.598145e+00)
0.00677856    	(-1.132087e+01 2.617599e+00 -1.125035e+03)	(-1.133667e+01 2.550441e+00 -1.126630e+03)	(1.580378e-02 6.715808e-02 1.595639e+00)
0.00682686    	(-1.136922e+01 2.637057e+00 -1.129800e+03)	(-1.138500e+01 2.569922e+00 -1.131393e+03)	(1.578179e-02 6.713490e-02 1.593500e+00)
0.00687516    	(-1.141645e+01 2.659856e+00 -1.134447e+03)	(-1.143221e+01 2.592747e+00 -1.136038e+03)	(1.575956e-02 6.710840e-02 1.591338e+00)
0.00692343    	(-1.146001e+01 2.673843e+00 -1.138746e+03)	(-1.147575e+01 2.606768e+00 -1.140335e+03)	(1.573392e-02 6.707494e-02 1.588836e+00)
0.00697171    	(-1.150049e+01 2.687371e+00 -1.142742e+03)	(-1.151620e+01 2.620328e+00 -1.144328e+03)	(1.571018e-02 6.704292e-02 1.586521e+00)
0.00701999    	(-1.156294e+01 2.715990e+00 -1.148886e+03)	(-1.157863e+01 2.648981e+00 -1.150471e+03)	(1.569049e-02 6.700902e-02 1.584608e+00)
0.00706826    	(-1.159482e+01 2.726518e+00 -1.152031e+03)	(-1.161049e+01 2.659550e+00 -1.153614e+03)	(1.567191e-02 6.696775e-02 1.582808e+00)
0.00711654    	(-1.164819e+01 2.749093e+00 -1.157287e+03)	(-1.166383e+01 2.682167e+00 -1.158867e+03)	(1.564207e-02 6.692581e-02 1.579883e+00)
0.00716482    	(-1.168147e+01 2.757135e+00 -1.160578e+03)	(-1.169709e+01 2.690248e+00 -1.162155e+03)	(1.561576e-02 6.688732e-02 1.577307e+00)
0.00721312    	(-1.173397e+01 2.782286e+00 -1.165738e+03)	(-1.174956e+01 2.715438e+00 -1.167313e+03)	(1.558791e-02 6.684818e-02 1.574578e+00)
0.00726142    	(-1.177732e+01 2.796803e+00 -1.170015e+03)	(-1.179288e+01 2.729998e+00 -1.171586e+03)	(1.555712e-02 6.680477e-02 1.571557e+00)
0.00730974    	(-1.183306e+01 2.820329e+00 -1.175503e+03)	(-1.184859e+01 2.753571e+00 -1.177071e+03)	(1.552587e-02 6.675808e-02 1.568488e+00)
0.0073581     	(-1.188265e+01 2.833775e+00 -1.180400e+03)	(-1.189815e+01 2.767061e+00 -1.181966e+03)	(1.549722e-02 6.671423e-02 1.565675e+00)
0.0074065     	(-1.193139e+01 2.854827e+00 -1.185196e+03)	(-1.194686e+01 2.788159e+00 -1.186759e+03)	(1.546705e-02 6.666872e-02 1.562713e+00)
0.00745493    	(-1.198405e+01 2.875241e+00 -1.190386e+03)	(-1.199949e+01 2.808623e+00 -1.191945e+03)	(1.543453e-02 6.661755e-02 1.559517e+00)
0.00750338    	(-1.203231e+01 2.891686e+00 -1.195143e+03)	(-1.204772e+01 2.825116e+00 -1.196700e+03)	(1.540718e-02 6.657025e-02 1.556831e+00)
0.00755188    	(-1.207645e+01 2.902702e+00 -1.199502e+03)	(-1.209182e+01 2.836182e+00 -1.201056e+03)	(1.537599e-02 6.652001e-02 1.553764e+00)
0.00760044    	(-1.213379e+01 2.926530e+00 -1.205146e+03)	(-1.214913e+01 2.860063e+00 -1.206697e+03)	(1.534305e-02 6.646726e-02 1.550521e+00)
0.00764904    	(-1.219534e+01 2.948031e+00 -1.211219e+03)	(-1.221065e+01 2.881623e+00 -1.212767e+03)	(1.530832e-02 6.640821e-02 1.547100e+00)
0.0076977     	(-1.221571e+01 2.947652e+00 -1.213245e+03)	(-1.223099e+01 2.881301e+00 -1.214789e+03)	(1.527636e-02 6.635118e-02 1.543952e+00)
0.00774641    	(-1.226028e+01 2.959539e+00 -1.217648e+03)	(-1.227553e+01 2.893244e+00 -1.219188e+03)	(1.524298e-02 6.629476e-02 1.540665e+00)
0.00779517    	(-1.232381e+01 2.992195e+00 -1.223891e+03)	(-1.233902e+01 2.925960e+00 -1.225429e+03)	(1.520907e-02 6.623465e-02 1.537322e+00)
0.00784401    	(-1.236418e+01 3.004760e+00 -1.227879e+03)	(-1.237936e+01 2.938590e+00 -1.229413e+03)	(1.517383e-02 6.616993e-02 1.533847e+00)
0.00789289    	(-1.238439e+01 3.006046e+00 -1.229883e+03)	(-1.239953e+01 2.939938e+00 -1.231414e+03)	(1.514069e-02 6.610767e-02 1.530580e+00)
0.00794186    	(-1.242795e+01 3.021512e+00 -1.234181e+03)	(-1.244306e+01 2.955462e+00 -1.235708e+03)	(1.510825e-02 6.605089e-02 1.527383e+00)
0.00799091    	(-1.247922e+01 3.052574e+00 -1.239212e+03)	(-1.249429e+01 2.986592e+00 -1.240736e+03)	(1.507190e-02 6.598200e-02 1.523796e+00)
0.00804003    	(-1.252481e+01 3.065224e+00 -1.243716e+03)	(-1.253984e+01 2.999315e+00 -1.245236e+03)	(1.503611e-02 6.590823e-02 1.520262e+00)
0.00808923    	(-1.253055e+01 3.056479e+00 -1.244306e+03)	(-1.254555e+01 2.990641e+00 -1.245823e+03)	(1.499865e-02 6.583764e-02 1.516564e+00)
0.00813854    	(-1.260375e+01 3.092547e+00 -1.251505e+03)	(-1.261871e+01 3.026783e+00 -1.253018e+03)	(1.496150e-02 6.576402e-02 1.512894e+00)
0.00818793    	(-1.264899e+01 3.115117e+00 -1.255957e+03)	(-1.266392e+01 3.049431e+00 -1.257466e+03)	(1.492226e-02 6.568595e-02 1.509017e+00)
0.00823729    	(-1.267837e+01 3.122741e+00 -1.258865e+03)	(-1.269325e+01 3.057136e+00 -1.260371e+03)	(1.488409e-02 6.560549e-02 1.505244e+00)
0.00828663    	(-1.268154e+01 3.112965e+00 -1.259206e+03)	(-1.269638e+01 3.047436e+00 -1.260707e+03)	(1.484419e-02 6.552925e-02 1.501302e+00)
0.00833593    	(-1.274087e+01 3.147635e+00 -1.265035e+03)	(-1.275567e+01 3.082185e+00 -1.266532e+03)	(1.480488e-02 6.545057e-02 1.497416e+00)
0.00838522    	(-1.276823e+01 3.157965e+00 -1.267739e+03)	(-1.278299e+01 3.092589e+00 -1.269233e+03)	(1.476678e-02 6.537612e-02 1.493653e+00)
0.0084345     	(-1.279079e+01 3.161794e+00 -1.269982e+03)	(-1.280552e+01 3.096506e+00 -1.271472e+03)	(1.472567e-02 6.528738e-02 1.489587e+00)
0.00848378    	(-1.278866e+01 3.151423e+00 -1.269800e+03)	(-1.280334e+01 3.086221e+00 -1.271286e+03)	(1.468371e-02 6.520179e-02 1.485437e+00)
0.00853303    	(-1.284362e+01 3.184540e+00 -1.275202e+03)	(-1.285827e+01 3.119427e+00 -1.276683e+03)	(1.464271e-02 6.511304e-02 1.481382e+00)
0.00858224    	(-1.286235e+01 3.191537e+00 -1.277058e+03)	(-1.287696e+01 3.126517e+00 -1.278535e+03)	(1.460041e-02 6.502033e-02 1.477198e+00)
0.00863139    	(-1.288087e+01 3.192902e+00 -1.278906e+03)	(-1.289543e+01 3.127980e+00 -1.280379e+03)	(1.455850e-02 6.492276e-02 1.473050e+00)
0.00868051    	(-1.286862e+01 3.182546e+00 -1.277723e+03)	(-1.288314e+01 3.117716e+00 -1.279192e+03)	(1.451656e-02 6.483018e-02 1.468900e+00)
0.00872961    	(-1.291312e+01 3.210692e+00 -1.282095e+03)	(-1.292759e+01 3.145957e+00 -1.283560e+03)	(1.447576e-02 6.473538e-02 1.464863e+00)
0.00877865    	(-1.293144e+01 3.217171e+00 -1.283912e+03)	(-1.294587e+01 3.152535e+00 -1.285372e+03)	(1.443316e-02 6.463639e-02 1.460647e+00)
0.00882767    	(-1.294440e+01 3.215684e+00 -1.285213e+03)	(-1.295879e+01 3.151151e+00 -1.286669e+03)	(1.439062e-02 6.453279e-02 1.456434e+00)
0.00887668    	(-1.296122e+01 3.221396e+00 -1.286881e+03)	(-1.297557e+01 3.156959e+00 -1.288333e+03)	(1.435219e-02 6.443755e-02 1.452633e+00)
0.00892568    	(-1.301378e+01 3.246700e+00 -1.292056e+03)	(-1.302808e+01 3.182368e+00 -1.293504e+03)	(1.430823e-02 6.433189e-02 1.448279e+00)
0.00897464    	(-1.303800e+01 3.259633e+00 -1.294445e+03)	(-1.305226e+01 3.195411e+00 -1.295889e+03)	(1.426358e-02 6.422217e-02 1.443855e+00)
0.0090236     	(-1.306425e+01 3.261963e+00 -1.297062e+03)	(-1.307847e+01 3.197855e+00 -1.298501e+03)	(1.421637e-02 6.410830e-02 1.439176e+00)
0.00907254    	(-1.310287e+01 3.282990e+00 -1.300867e+03)	(-1.311704e+01 3.218993e+00 -1.302301e+03)	(1.416974e-02 6.399734e-02 1.434555e+00)
0.00912148    	(-1.315817e+01 3.307125e+00 -1.306322e+03)	(-1.317230e+01 3.243240e+00 -1.307752e+03)	(1.412142e-02 6.388531e-02 1.429766e+00)
0.00917042    	(-1.320498e+01 3.331960e+00 -1.310931e+03)	(-1.321905e+01 3.268190e+00 -1.312356e+03)	(1.407190e-02 6.377018e-02 1.424857e+00)
0.00921936    	(-1.324967e+01 3.341852e+00 -1.315362e+03)	(-1.326369e+01 3.278200e+00 -1.316782e+03)	(1.401991e-02 6.365132e-02 1.419702e+00)
0.00926824    	(-1.329329e+01 3.367823e+00 -1.319653e+03)	(-1.330726e+01 3.304288e+00 -1.321068e+03)	(1.396936e-02 6.353511e-02 1.414691e+00)
0.00931708    	(-1.335158e+01 3.391503e+00 -1.325402e+03)	(-1.336550e+01 3.328082e+00 -1.326812e+03)	(1.391810e-02 6.342042e-02 1.409609e+00)
0.00936588    	(-1.340529e+01 3.418056e+00 -1.330689e+03)	(-1.341916e+01 3.354754e+00 -1.332093e+03)	(1.386511e-02 6.330167e-02 1.404355e+00)
0.00941466    	(-1.346295e+01 3.433954e+00 -1.336387e+03)	(-1.347676e+01 3.370776e+00 -1.337786e+03)	(1.381053e-02 6.317788e-02 1.398943e+00)
0.00946342    	(-1.351972e+01 3.464334e+00 -1.341967e+03)	(-1.353348e+01 3.401281e+00 -1.343360e+03)	(1.375690e-02 6.305348e-02 1.393625e+00)
0.00951215    	(-1.356843e+01 3.478134e+00 -1.346780e+03)	(-1.358213e+01 3.415205e+00 -1.348168e+03)	(1.370320e-02 6.292909e-02 1.388300e+00)
0.00956085    	(-1.362398e+01 3.507388e+00 -1.352235e+03)	(-1.363763e+01 3.444587e+00 -1.353618e+03)	(1.364782e-02 6.280049e-02 1.382810e+00)
0.00960952    	(-1.368506e+01 3.527265e+00 -1.358257e+03)	(-1.369865e+01 3.464602e+00 -1.359634e+03)	(1.359267e-02 6.266351e-02 1.377341e+00)
0.00965817    	(-1.373878e+01 3.553319e+00 -1.363534e+03)	(-1.375232e+01 3.490792e+00 -1.364906e+03)	(1.353871e-02 6.252678e-02 1.371990e+00)
0.0097068     	(-1.378031e+01 3.562365e+00 -1.367641e+03)	(-1.379379e+01 3.499971e+00 -1.369008e+03)	(1.348441e-02 6.239432e-02 1.366607e+00)
0.00975539    	(-1.384535e+01 3.593145e+00 -1.374029e+03)	(-1.385878e+01 3.530884e+00 -1.375390e+03)	(1.342934e-02 6.226033e-02 1.361148e+00)
0.00980399    	(-1.390595e+01 3.615936e+00 -1.379991e+03)	(-1.391933e+01 3.553823e+00 -1.381348e+03)	(1.337838e-02 6.211292e-02 1.356096e+00)
0.00985256    	(-1.395922e+01 3.634846e+00 -1.385238e+03)	(-1.397254e+01 3.572870e+00 -1.386589e+03)	(1.332292e-02 6.197605e-02 1.350594e+00)
0.00990113    	(-1.400699e+01 3.649690e+00 -1.389949e+03)	(-1.402026e+01 3.587848e+00 -1.391294e+03)	(1.326745e-02 6.184211e-02 1.345093e+00)
0.00994968    	(-1.406491e+01 3.676362e+00 -1.395638e+03)	(-1.407812e+01 3.614656e+00 -1.396978e+03)	(1.321077e-02 6.170602e-02 1.339473e+00)
0.00999819    	(-1.412382e+01 3.700222e+00 -1.401432e+03)	(-1.413698e+01 3.638656e+00 -1.402766e+03)	(1.315588e-02 6.156589e-02 1.334025e+00)
0.0100467     	(-1.416921e+01 3.712384e+00 -1.405911e+03)	(-1.418231e+01 3.650959e+00 -1.407240e+03)	(1.309937e-02 6.142429e-02 1.328417e+00)
0.0100951     	(-1.421855e+01 3.728031e+00 -1.410777e+03)	(-1.423160e+01 3.666744e+00 -1.412100e+03)	(1.304304e-02 6.128765e-02 1.322829e+00)
0.0101435     	(-1.427859e+01 3.755475e+00 -1.416675e+03)	(-1.429158e+01 3.694326e+00 -1.417992e+03)	(1.298634e-02 6.114899e-02 1.317203e+00)
0.0101918     	(-1.433887e+01 3.779022e+00 -1.422604e+03)	(-1.435180e+01 3.718018e+00 -1.423916e+03)	(1.293026e-02 6.100486e-02 1.311635e+00)
0.0102401     	(-1.439253e+01 3.791264e+00 -1.427905e+03)	(-1.440541e+01 3.730409e+00 -1.429211e+03)	(1.287431e-02 6.085503e-02 1.306083e+00)