# Force       
# CofR        : (5.000000e+00 5.000000e-03 0.000000e+00)
#
# Time        	(total_x total_y total_z)	(pressure_x pressure_y pressure_z)	(viscous_x viscous_y viscous_z)
1.20005e-05   	(7.957196e+04 1.544125e+05 1.895078e-13)	(7.957115e+04 1.544126e+05 1.895076e-13)	(8.050990e-01 -5.867171e-02 1.219587e-19)
2.64017e-05   	(2.250781e+03 4.055760e+03 5.009425e-15)	(2.249992e+03 4.055841e+03 5.009344e-15)	(7.893494e-01 -8.117764e-02 8.118553e-20)
4.36833e-05   	(4.425295e+02 7.569998e+02 6.546428e-16)	(4.417422e+02 7.570914e+02 6.545795e-16)	(7.872692e-01 -9.158259e-02 6.330969e-20)
6.44211e-05   	(1.650100e+02 3.701179e+02 2.130559e-16)	(1.642221e+02 3.702142e+02 2.129980e-16)	(7.879474e-01 -9.631738e-02 5.787363e-20)
8.93055e-05   	(9.372148e+01 2.957521e+02 1.209757e-16)	(9.293213e+01 2.958515e+02 1.209223e-16)	(7.893536e-01 -9.940520e-02 5.342581e-20)
0.000119165   	(8.727377e+01 2.903329e+02 8.495049e-17)	(8.648214e+01 2.904346e+02 8.490151e-17)	(7.916384e-01 -1.017297e-01 4.898345e-20)
0.00015499    	(1.006418e+02 2.906591e+02 7.692001e-17)	(9.984659e+01 2.907627e+02 7.687541e-17)	(7.952451e-01 -1.036033e-01 4.459626e-20)
0.000197972   	(1.164027e+02 3.017417e+02 7.207859e-17)	(1.156025e+02 3.018469e+02 7.203853e-17)	(8.001730e-01 -1.051517e-01 4.005399e-20)
0.000249416   	(1.269793e+02 3.140202e+02 4.475392e-17)	(1.261732e+02 3.141267e+02 4.471896e-17)	(8.061321e-01 -1.065101e-01 3.496401e-20)
0.00030929    	(1.303410e+02 3.151673e+02 -8.531093e-18)	(1.295288e+02 3.152752e+02 -8.560764e-18)	(8.121577e-01 -1.078758e-01 2.967148e-20)
0.000377525   	(1.327304e+02 3.172071e+02 -5.653045e-17)	(1.319125e+02 3.173170e+02 -5.655560e-17)	(8.178642e-01 -1.098879e-01 2.515404e-20)
0.000454099   	(1.380467e+02 3.296031e+02 -8.719231e-17)	(1.372238e+02 3.297162e+02 -8.721399e-17)	(8.229591e-01 -1.131892e-01 2.167450e-20)
0.00053576    	(1.398830e+02 3.368569e+02 -8.790872e-17)	(1.390555e+02 3.369749e+02 -8.792628e-17)	(8.274928e-01 -1.180318e-01 1.755600e-20)
0.000612154   	(1.354252e+02 3.248361e+02 -6.150488e-17)	(1.345946e+02 3.249598e+02 -6.151796e-17)	(8.306191e-01 -1.237322e-01 1.307786e-20)
0.000684753   	(1.308422e+02 3.171695e+02 -1.687240e-17)	(1.300097e+02 3.172994e+02 -1.688210e-17)	(8.325668e-01 -1.298939e-01 9.699838e-21)
0.000754253   	(1.255201e+02 3.089692e+02 5.242997e-17)	(1.246864e+02 3.091055e+02 5.242357e-17)	(8.337398e-01 -1.363286e-01 6.396762e-21)
0.000821629   	(1.198376e+02 2.954374e+02 1.375327e-16)	(1.190030e+02 2.955804e+02 1.375301e-16)	(8.345093e-01 -1.430038e-01 2.636439e-21)
0.000888014   	(1.156191e+02 2.844982e+02 1.865609e-16)	(1.147840e+02 2.846481e+02 1.865609e-16)	(8.350651e-01 -1.498974e-01 -2.738357e-23)
0.000953738   	(1.105196e+02 2.737766e+02 2.152532e-16)	(1.096840e+02 2.739338e+02 2.152520e-16)	(8.356038e-01 -1.571221e-01 1.224413e-21)
0.00101942    	(1.032535e+02 2.607933e+02 2.412778e-16)	(1.024171e+02 2.609583e+02 2.412665e-16)	(8.363711e-01 -1.649870e-01 1.124608e-20)
0.00108558    	(9.382270e+01 2.434684e+02 2.684685e-16)	(9.298476e+01 2.436426e+02 2.684361e-16)	(8.379421e-01 -1.741797e-01 3.237963e-20)
0.00115255    	(8.093267e+01 2.219765e+02 2.440628e-16)	(8.009202e+01 2.221607e+02 2.440082e-16)	(8.406511e-01 -1.841612e-01 5.460060e-20)
0.00122072    	(6.806530e+01 2.008673e+02 1.203155e-16)	(6.722136e+01 2.010601e+02 1.202514e-16)	(8.439413e-01 -1.927336e-01 6.413383e-20)
0.00129033    	(4.995678e+01 1.732221e+02 -1.914604e-16)	(4.910937e+01 1.734220e+02 -1.915187e-16)	(8.474102e-01 -1.998783e-01 5.827176e-20)
0.00136       	(6.716073e+00 1.090959e+02 -9.649332e-16)	(5.865300e+00 1.093014e+02 -9.649732e-16)	(8.507736e-01 -2.054977e-01 4.001223e-20)
0.00142922    	(-9.716087e+01 -3.627103e+01 -2.544392e-15)	(-9.801333e+01 -3.606331e+01 -2.544407e-15)	(8.524599e-01 -2.077207e-01 1.454569e-20)
0.00149839    	(-1.247149e+02 3.337632e+01 -2.921384e-15)	(-1.255657e+02 3.358315e+01 -2.921379e-15)	(8.508674e-01 -2.068324e-01 -5.345284e-21)
0.0015681     	(-2.152857e+01 3.359170e+02 -1.432377e-15)	(-2.237547e+01 3.361223e+02 -1.432359e-15)	(8.469050e-01 -2.053747e-01 -1.752230e-20)
0.00163831    	(3.733946e+01 3.282544e+02 -7.576627e-16)	(3.649302e+01 3.284604e+02 -7.576396e-16)	(8.464395e-01 -2.060643e-01 -2.310827e-20)
0.00170907    	(5.824193e+01 2.502351e+02 -5.282282e-16)	(5.739292e+01 2.504434e+02 -5.282020e-16)	(8.490074e-01 -2.082310e-01 -2.621486e-20)
0.0017803     	(6.094626e+01 2.304026e+02 -4.813681e-16)	(6.009425e+01 2.306131e+02 -4.813392e-16)	(8.520058e-01 -2.105274e-01 -2.887767e-20)
0.00185183    	(6.022956e+01 2.294190e+02 -4.768475e-16)	(5.937464e+01 2.296318e+02 -4.768161e-16)	(8.549226e-01 -2.128208e-01 -3.141061e-20)
0.00192384    	(6.084342e+01 2.299445e+02 -4.646163e-16)	(5.998611e+01 2.301594e+02 -4.645823e-16)	(8.573133e-01 -2.149633e-01 -3.394920e-20)
0.00199628    	(6.100272e+01 2.307666e+02 -4.592487e-16)	(6.014298e+01 2.309837e+02 -4.592123e-16)	(8.597425e-01 -2.171026e-01 -3.639443e-20)
0.00206893    	(6.240156e+01 2.342252e+02 -4.453508e-16)	(6.153987e+01 2.344443e+02 -4.453124e-16)	(8.616862e-01 -2.191002e-01 -3.844804e-20)
0.00214136    	(6.340977e+01 2.363355e+02 -4.338105e-16)	(6.254610e+01 2.365566e+02 -4.337707e-16)	(8.636756e-01 -2.211187e-01 -3.981067e-20)
0.00221342    	(6.465093e+01 2.388643e+02 -4.228553e-16)	(6.378588e+01 2.390873e+02 -4.228149e-16)	(8.650480e-01 -2.229357e-01 -4.047594e-20)
0.00228527    	(6.616076e+01 2.421352e+02 -4.065863e-16)	(6.529454e+01 2.423599e+02 -4.065452e-16)	(8.662192e-01 -2.246940e-01 -4.107444e-20)
0.00235712    	(6.746592e+01 2.447014e+02 -3.919681e-16)	(6.659880e+01 2.449278e+02 -3.919276e-16)	(8.671175e-01 -2.263941e-01 -4.042263e-20)
0.00242881    	(6.854048e+01 2.471533e+02 -3.811672e-16)	(6.767232e+01 2.473816e+02 -3.811283e-16)	(8.681665e-01 -2.282867e-01 -3.889806e-20)
0.00250087    	(6.917926e+01 2.479840e+02 -3.729944e-16)	(6.830888e+01 2.482148e+02 -3.729557e-16)	(8.703841e-01 -2.307749e-01 -3.872496e-20)
0.00257277    	(7.011756e+01 2.499772e+02 -3.627157e-16)	(6.924718e+01 2.502093e+02 -3.626789e-16)	(8.703857e-01 -2.321001e-01 -3.672431e-20)
0.002645      	(7.112859e+01 2.517567e+02 -3.510998e-16)	(7.025824e+01 2.519901e+02 -3.510647e-16)	(8.703477e-01 -2.334362e-01 -3.512051e-20)
0.00271722    	(7.161493e+01 2.529345e+02 -3.434644e-16)	(7.074298e+01 2.531700e+02 -3.434311e-16)	(8.719454e-01 -2.355246e-01 -3.329493e-20)
0.00278949    	(7.237360e+01 2.542359e+02 -3.346491e-16)	(7.150182e+01 2.544726e+02 -3.346180e-16)	(8.717817e-01 -2.367796e-01 -3.112526e-20)
0.00286182    	(7.281070e+01 2.551223e+02 -3.267658e-16)	(7.193869e+01 2.553606e+02 -3.267375e-16)	(8.720126e-01 -2.382824e-01 -2.828612e-20)
0.00293421    	(7.304710e+01 2.561338e+02 -3.223341e-16)	(7.217513e+01 2.563733e+02 -3.223096e-16)	(8.719688e-01 -2.394476e-01 -2.444672e-20)
0.00300664    	(7.338514e+01 2.567703e+02 -3.168048e-16)	(7.251326e+01 2.570108e+02 -3.167852e-16)	(8.718832e-01 -2.405376e-01 -1.959269e-20)
0.00307919    	(7.329732e+01 2.565257e+02 -3.149572e-16)	(7.242410e+01 2.567680e+02 -3.149434e-16)	(8.732228e-01 -2.423777e-01 -1.375636e-20)
0.0031519     	(7.337487e+01 2.570790e+02 -3.115586e-16)	(7.250181e+01 2.573223e+02 -3.115515e-16)	(8.730590e-01 -2.432873e-01 -7.077200e-21)
0.00322471    	(7.351887e+01 2.574667e+02 -3.090822e-16)	(7.264566e+01 2.577110e+02 -3.090824e-16)	(8.732084e-01 -2.443051e-01 1.656611e-22)
0.0032977     	(7.376849e+01 2.580675e+02 -3.070831e-16)	(7.289504e+01 2.583129e+02 -3.070909e-16)	(8.734483e-01 -2.453870e-01 7.812897e-21)
0.0033709     	(7.404031e+01 2.589486e+02 -3.029293e-16)	(7.316683e+01 2.591947e+02 -3.029443e-16)	(8.734806e-01 -2.461196e-01 1.499436e-20)
0.00344422    	(7.408494e+01 2.589281e+02 -3.031961e-16)	(7.321040e+01 2.591755e+02 -3.032172e-16)	(8.745395e-01 -2.473746e-01 2.115263e-20)
0.00351759    	(7.424471e+01 2.594804e+02 -3.032477e-16)	(7.337008e+01 2.597285e+02 -3.032751e-16)	(8.746311e-01 -2.481318e-01 2.739110e-20)
0.00359107    	(7.454128e+01 2.602097e+02 -3.019902e-16)	(7.366621e+01 2.604587e+02 -3.020199e-16)	(8.750657e-01 -2.489755e-01 2.965384e-20)
0.00366461    	(7.482533e+01 2.607443e+02 -3.014001e-16)	(7.394974e+01 2.609941e+02 -3.014298e-16)	(8.755946e-01 -2.498213e-01 2.967738e-20)
0.00373826    	(7.513910e+01 2.616648e+02 -3.025453e-16)	(7.426293e+01 2.619154e+02 -3.025729e-16)	(8.761693e-01 -2.505855e-01 2.753148e-20)
0.00381202    	(7.551336e+01 2.625790e+02 -3.060755e-16)	(7.463636e+01 2.628305e+02 -3.060988e-16)	(8.770016e-01 -2.515440e-01 2.326552e-20)
0.00388584    	(7.593441e+01 2.635979e+02 -3.078426e-16)	(7.505676e+01 2.638501e+02 -3.078597e-16)	(8.776453e-01 -2.522515e-01 1.711632e-20)
0.00395978    	(7.614367e+01 2.642455e+02 -3.136876e-16)	(7.526518e+01 2.644985e+02 -3.136967e-16)	(8.784942e-01 -2.530120e-01 9.125656e-21)
0.00403377    	(7.637022e+01 2.651196e+02 -3.226427e-16)	(7.549074e+01 2.653737e+02 -3.226420e-16)	(8.794786e-01 -2.540178e-01 -6.767609e-22)
0.00410736    	(7.705956e+01 2.665816e+02 -3.245827e-16)	(7.617950e+01 2.668364e+02 -3.245713e-16)	(8.800585e-01 -2.548660e-01 -1.137750e-20)
0.00417995    	(7.762326e+01 2.679049e+02 -3.287360e-16)	(7.674236e+01 2.681604e+02 -3.287118e-16)	(8.808963e-01 -2.554747e-01 -2.414455e-20)
0.00425189    	(7.788550e+01 2.684539e+02 -3.376219e-16)	(7.700381e+01 2.687099e+02 -3.375846e-16)	(8.816896e-01 -2.560242e-01 -3.730395e-20)
0.0043235     	(7.803587e+01 2.688561e+02 -3.477471e-16)	(7.715346e+01 2.691126e+02 -3.476964e-16)	(8.824126e-01 -2.565140e-01 -5.067113e-20)
0.00439501    	(7.840369e+01 2.695576e+02 -3.530536e-16)	(7.752068e+01 2.698146e+02 -3.529898e-16)	(8.830110e-01 -2.569634e-01 -6.382635e-20)
0.00446662    	(7.869861e+01 2.701441e+02 -3.618017e-16)	(7.781483e+01 2.704018e+02 -3.617253e-16)	(8.837794e-01 -2.576741e-01 -7.644104e-20)
0.00453851    	(7.902693e+01 2.707699e+02 -3.710879e-16)	(7.814270e+01 2.710280e+02 -3.709992e-16)	(8.842332e-01 -2.580893e-01 -8.865196e-20)
0.00461077    	(7.925381e+01 2.713696e+02 -3.787681e-16)	(7.836919e+01 2.716280e+02 -3.786674e-16)	(8.846191e-01 -2.584825e-01 -1.007165e-19)
0.00468359    	(7.957455e+01 2.721267e+02 -3.844064e-16)	(7.868982e+01 2.723858e+02 -3.842940e-16)	(8.847312e-01 -2.590454e-01 -1.124259e-19)
0.00475702    	(7.986693e+01 2.728915e+02 -3.928396e-16)	(7.898196e+01 2.731508e+02 -3.927146e-16)	(8.849672e-01 -2.592985e-01 -1.250314e-19)
0.0048312     	(7.999799e+01 2.733995e+02 -4.034111e-16)	(7.911287e+01 2.736590e+02 -4.032727e-16)	(8.851262e-01 -2.595187e-01 -1.383847e-19)
0.00490532    	(8.014106e+01 2.739767e+02 -4.117532e-16)	(7.925581e+01 2.742364e+02 -4.116012e-16)	(8.852594e-01 -2.597223e-01 -1.520612e-19)
0.00497864    	(8.042207e+01 2.748025e+02 -4.225032e-16)	(7.953670e+01 2.750624e+02 -4.223374e-16)	(8.853732e-01 -2.599162e-01 -1.657592e-19)
0.00505134    	(8.094255e+01 2.760048e+02 -4.276105e-16)	(8.005716e+01 2.762649e+02 -4.274318e-16)	(8.853932e-01 -2.600897e-01 -1.786968e-19)
0.00512354    	(8.107458e+01 2.764787e+02 -4.366333e-16)	(8.018922e+01 2.767390e+02 -4.364435e-16)	(8.853550e-01 -2.602191e-01 -1.897688e-19)
0.00519531    	(8.140424e+01 2.773500e+02 -4.457268e-16)	(8.051904e+01 2.776106e+02 -4.455285e-16)	(8.852026e-01 -2.605108e-01 -1.982347e-19)
0.00526675    	(8.179319e+01 2.782286e+02 -4.580473e-16)	(8.090778e+01 2.784892e+02 -4.578429e-16)	(8.854145e-01 -2.605891e-01 -2.044175e-19)
0.00533804    	(8.232535e+01 2.792145e+02 -4.667511e-16)	(8.143967e+01 2.794754e+02 -4.665436e-16)	(8.856770e-01 -2.608913e-01 -2.074465e-19)
0.00540916    	(8.257422e+01 2.798965e+02 -4.737312e-16)	(8.168849e+01 2.801573e+02 -4.735242e-16)	(8.857295e-01 -2.608006e-01 -2.069858e-19)
0.00548017    	(8.305447e+01 2.807455e+02 -4.810397e-16)	(8.216873e+01 2.810063e+02 -4.808363e-16)	(8.857344e-01 -2.607481e-01 -2.034771e-19)
0.00555113    	(8.340063e+01 2.814753e+02 -4.892664e-16)	(8.251496e+01 2.817360e+02 -4.890688e-16)	(8.856696e-01 -2.606985e-01 -1.976199e-19)
0.00562204    	(8.373715e+01 2.822991e+02 -4.913324e-16)	(8.285158e+01 2.825597e+02 -4.911421e-16)	(8.855678e-01 -2.605865e-01 -1.902394e-19)
0.00569295    	(8.413390e+01 2.831161e+02 -4.881906e-16)	(8.324844e+01 2.833768e+02 -4.880093e-16)	(8.854628e-01 -2.606460e-01 -1.813200e-19)
0.00576396    	(8.470392e+01 2.843311e+02 -4.790003e-16)	(8.381860e+01 2.845915e+02 -4.788286e-16)	(8.853168e-01 -2.604364e-01 -1.717310e-19)
0.00583508    	(8.516451e+01 2.854107e+02 -4.678273e-16)	(8.427936e+01 2.856709e+02 -4.676654e-16)	(8.851438e-01 -2.601905e-01 -1.619803e-19)
0.00590637    	(8.554440e+01 2.862261e+02 -4.534103e-16)	(8.465942e+01 2.864860e+02 -4.532580e-16)	(8.849752e-01 -2.599178e-01 -1.522594e-19)
0.00597787    	(8.596574e+01 2.871681e+02 -4.327406e-16)	(8.508100e+01 2.874278e+02 -4.325979e-16)	(8.847428e-01 -2.596410e-01 -1.426806e-19)
0.00604964    	(8.619060e+01 2.879597e+02 -4.131409e-16)	(8.530614e+01 2.882191e+02 -4.130065e-16)	(8.844602e-01 -2.593842e-01 -1.343953e-19)
0.00612169    	(8.662050e+01 2.888527e+02 -3.936647e-16)	(8.573629e+01 2.891118e+02 -3.935376e-16)	(8.842075e-01 -2.590920e-01 -1.271209e-19)
0.00619401    	(8.715161e+01 2.900401e+02 -3.759417e-16)	(8.626762e+01 2.902990e+02 -3.758213e-16)	(8.839975e-01 -2.589061e-01 -1.204248e-19)
0.00626662    	(8.755921e+01 2.909805e+02 -3.588312e-16)	(8.667556e+01 2.912390e+02 -3.587166e-16)	(8.836526e-01 -2.584759e-01 -1.146278e-19)
0.00633956    	(8.791813e+01 2.919052e+02 -3.413622e-16)	(8.703485e+01 2.921632e+02 -3.412524e-16)	(8.832813e-01 -2.579751e-01 -1.097526e-19)
0.00641285    	(8.834706e+01 2.927312e+02 -3.233607e-16)	(8.746412e+01 2.929887e+02 -3.232554e-16)	(8.829392e-01 -2.574110e-01 -1.053691e-19)
0.00648654    	(8.885554e+01 2.938043e+02 -3.039059e-16)	(8.797298e+01 2.940612e+02 -3.038050e-16)	(8.825583e-01 -2.568666e-01 -1.009336e-19)
0.00656058    	(8.929204e+01 2.946342e+02 -2.838016e-16)	(8.840995e+01 2.948905e+02 -2.837045e-16)	(8.820858e-01 -2.563082e-01 -9.709261e-20)
0.0066345     	(8.969508e+01 2.956170e+02 -2.598077e-16)	(8.881336e+01 2.958729e+02 -2.597136e-16)	(8.817242e-01 -2.558845e-01 -9.414706e-20)
0.00670825    	(9.027450e+01 2.968100e+02 -2.326886e-16)	(8.939326e+01 2.970652e+02 -2.325977e-16)	(8.812413e-01 -2.551970e-01 -9.085558e-20)
0.00678188    	(9.101854e+01 2.982795e+02 -2.020715e-16)	(9.013783e+01 2.985341e+02 -2.019850e-16)	(8.807066e-01 -2.545281e-01 -8.647835e-20)
0.0068554     	(9.146399e+01 2.992507e+02 -1.677006e-16)	(9.058386e+01 2.995045e+02 -1.676189e-16)	(8.801312e-01 -2.538143e-01 -8.167858e-20)
0.00692886    	(9.204546e+01 3.004525e+02 -1.226454e-16)	(9.116590e+01 3.007056e+02 -1.225692e-16)	(8.795629e-01 -2.531146e-01 -7.616306e-20)
0.00700226    	(9.264944e+01 3.017582e+02 -7.678164e-17)	(9.177045e+01 3.020106e+02 -7.671228e-17)	(8.789839e-01 -2.524098e-01 -6.935801e-20)
0.00707566    	(9.319897e+01 3.029611e+02 -3.252532e-17)	(9.232044e+01 3.032130e+02 -3.246249e-17)	(8.785203e-01 -2.518671e-01 -6.282999e-20)
0.00714894    	(9.381330e+01 3.040372e+02 2.001009e-17)	(9.293549e+01 3.042883e+02 2.006480e-17)	(8.778073e-01 -2.510593e-01 -5.471625e-20)
0.00722211    	(9.439775e+01 3.053567e+02 7.531001e-17)	(9.352067e+01 3.056069e+02 7.535482e-17)	(8.770738e-01 -2.502055e-01 -4.480857e-20)
0.00729516    	(9.492624e+01 3.066104e+02 1.224427e-16)	(9.404993e+01 3.068597e+02 1.224775e-16)	(8.763111e-01 -2.493411e-01 -3.480190e-20)
0.00736816    	(9.550296e+01 3.077742e+02 1.689803e-16)	(9.462740e+01 3.080227e+02 1.690066e-16)	(8.755575e-01 -2.484959e-01 -2.628472e-20)
0.0074411     	(9.628854e+01 3.091412e+02 2.214307e-16)	(9.541376e+01 3.093889e+02 2.214488e-16)	(8.747850e-01 -2.476804e-01 -1.807070e-20)
0.00751398    	(9.666702e+01 3.102333e+02 2.674288e-16)	(9.579302e+01 3.104801e+02 2.674394e-16)	(8.740028e-01 -2.468096e-01 -1.058158e-20)
0.0075868     	(9.709331e+01 3.112768e+02 3.059869e-16)	(9.621994e+01 3.115230e+02 3.059927e-16)	(8.733722e-01 -2.461348e-01 -5.769510e-21)
0.00765963    	(9.797961e+01 3.128258e+02 3.447737e-16)	(9.710708e+01 3.130710e+02 3.447764e-16)	(8.725280e-01 -2.451965e-01 -2.648216e-21)
0.00773245    	(9.865204e+01 3.142353e+02 3.779438e-16)	(9.778035e+01 3.144795e+02 3.779466e-16)	(8.716871e-01 -2.442441e-01 -2.747960e-21)
0.00780522    	(9.900886e+01 3.153192e+02 4.096526e-16)	(9.813803e+01 3.155624e+02 4.096588e-16)	(8.708382e-01 -2.432344e-01 -6.154142e-21)
0.00787787    	(9.966449e+01 3.166554e+02 4.356819e-16)	(9.879456e+01 3.168976e+02 4.356945e-16)	(8.699229e-01 -2.422204e-01 -1.267636e-20)
0.00795046    	(1.006068e+02 3.183899e+02 4.563978e-16)	(9.973773e+01 3.186311e+02 4.564196e-16)	(8.690274e-01 -2.412533e-01 -2.181215e-20)
0.00802294    	(1.012542e+02 3.198241e+02 4.759630e-16)	(1.003861e+02 3.200644e+02 4.759945e-16)	(8.681349e-01 -2.402593e-01 -3.146331e-20)
0.00809536    	(1.016528e+02 3.209468e+02 4.934631e-16)	(1.007855e+02 3.211861e+02 4.935053e-16)	(8.672089e-01 -2.392136e-01 -4.214127e-20)
0.00816779    	(1.026905e+02 3.225656e+02 5.061391e-16)	(1.018243e+02 3.228038e+02 5.061914e-16)	(8.662286e-01 -2.381768e-01 -5.223949e-20)
0.00824015    	(1.034538e+02 3.240320e+02 5.187011e-16)	(1.025884e+02 3.242694e+02 5.187623e-16)	(8.653667e-01 -2.373511e-01 -6.118214e-20)
0.00831246    	(1.039297e+02 3.250788e+02 5.307689e-16)	(1.030658e+02 3.253151e+02 5.308297e-16)	(8.639711e-01 -2.363744e-01 -6.085118e-20)
0.00838477    	(1.044811e+02 3.263852e+02 5.393199e-16)	(1.036181e+02 3.266203e+02 5.393802e-16)	(8.629162e-01 -2.351712e-01 -6.031750e-20)
0.00845708    	(1.054952e+02 3.280203e+02 5.466372e-16)	(1.046333e+02 3.282543e+02 5.466940e-16)	(8.618121e-01 -2.339993e-01 -5.681318e-20)
0.00852933    	(1.062422e+02 3.294772e+02 5.549001e-16)	(1.053815e+02 3.297100e+02 5.549499e-16)	(8.606950e-01 -2.327960e-01 -4.979920e-20)
0.00860158    	(1.067045e+02 3.304539e+02 5.644339e-16)	(1.058449e+02 3.306855e+02 5.644721e-16)	(8.595745e-01 -2.315504e-01 -3.812213e-20)
0.00867389    	(1.075999e+02 3.320542e+02 5.692581e-16)	(1.067415e+02 3.322845e+02 5.692830e-16)	(8.584299e-01 -2.303012e-01 -2.488065e-20)
0.0087462     	(1.084553e+02 3.334470e+02 5.741460e-16)	(1.075980e+02 3.336760e+02 5.741571e-16)	(8.573002e-01 -2.290552e-01 -1.114267e-20)
0.00881857    	(1.091069e+02 3.346706e+02 5.784259e-16)	(1.082507e+02 3.348984e+02 5.784229e-16)	(8.561164e-01 -2.278048e-01 2.975236e-21)
0.00889099    	(1.095807e+02 3.356627e+02 5.831300e-16)	(1.087258e+02 3.358892e+02 5.831133e-16)	(8.549016e-01 -2.265337e-01 1.664074e-20)
0.00896347    	(1.103961e+02 3.369670e+02 5.823795e-16)	(1.095428e+02 3.371925e+02 5.823469e-16)	(8.533178e-01 -2.254860e-01 3.262060e-20)
0.00903601    	(1.111293e+02 3.382538e+02 5.807861e-16)	(1.102771e+02 3.384780e+02 5.807429e-16)	(8.521985e-01 -2.241873e-01 4.324663e-20)
0.00910867    	(1.116498e+02 3.393397e+02 5.782104e-16)	(1.107987e+02 3.395626e+02 5.781582e-16)	(8.510635e-01 -2.228707e-01 5.218151e-20)
0.00918138    	(1.122866e+02 3.405419e+02 5.730645e-16)	(1.114366e+02 3.407634e+02 5.730056e-16)	(8.499373e-01 -2.215312e-01 5.887521e-20)
0.00925421    	(1.130225e+02 3.417587e+02 5.651919e-16)	(1.121737e+02 3.419789e+02 5.651263e-16)	(8.488261e-01 -2.201955e-01 6.559441e-20)
0.00932715    	(1.136382e+02 3.427128e+02 5.538019e-16)	(1.127906e+02 3.429317e+02 5.537299e-16)	(8.476670e-01 -2.188884e-01 7.197617e-20)
0.00940022    	(1.139416e+02 3.433558e+02 5.427430e-16)	(1.130951e+02 3.435734e+02 5.426662e-16)	(8.464751e-01 -2.175946e-01 7.676320e-20)
0.0094734     	(1.145731e+02 3.443217e+02 5.220735e-16)	(1.137281e+02 3.445383e+02 5.219900e-16)	(8.449941e-01 -2.165334e-01 8.351866e-20)
0.0095467     	(1.150628e+02 3.450649e+02 5.036584e-16)	(1.142189e+02 3.452801e+02 5.035733e-16)	(8.439079e-01 -2.151984e-01 8.515085e-20)
0.00962012    	(1.154748e+02 3.455589e+02 4.843411e-16)	(1.146320e+02 3.457728e+02 4.842555e-16)	(8.427883e-01 -2.138938e-01 8.555550e-20)
0.00969372    	(1.158562e+02 3.462336e+02 4.631798e-16)	(1.150146e+02 3.464461e+02 4.630964e-16)	(8.416285e-01 -2.125909e-01 8.338505e-20)
0.00976744    	(1.164119e+02 3.470005e+02 4.363893e-16)	(1.155714e+02 3.472118e+02 4.363108e-16)	(8.404856e-01 -2.113214e-01 7.846982e-20)
0.00984134    	(1.168480e+02 3.476173e+02 4.114992e-16)	(1.160086e+02 3.478273e+02 4.114287e-16)	(8.393416e-01 -2.100659e-01 7.049373e-20)
0.00991542    	(1.171449e+02 3.482092e+02 3.874802e-16)	(1.163067e+02 3.484181e+02 3.874198e-16)	(8.381602e-01 -2.088529e-01 6.034263e-20)
0.00998969    	(1.177241e+02 3.490074e+02 3.556426e-16)	(1.168871e+02 3.492151e+02 3.555958e-16)	(8.369627e-01 -2.076718e-01 4.681598e-20)
0.0100641     	(1.180621e+02 3.495305e+02 3.262612e-16)	(1.172263e+02 3.497370e+02 3.262301e-16)	(8.358105e-01 -2.065312e-01 3.106050e-20)
0.0101387     	(1.184380e+02 3.501524e+02 3.000750e-16)	(1.176036e+02 3.503580e+02 3.000581e-16)	(8.344015e-01 -2.055887e-01 1.692169e-20)
0.0102133     	(1.187140e+02 3.507156e+02 2.747308e-16)	(1.178807e+02 3.509200e+02 2.747337e-16)	(8.332590e-01 -2.044122e-01 -2.847942e-21)
0.0102879     	(1.192392e+02 3.515937e+02 2.468986e-16)	(1.184071e+02 3.517970e+02 2.469220e-16)	(8.321182e-01 -2.032727e-01 -2.337173e-20)
0.0103624     	(1.195989e+02 3.522124e+02 2.218120e-16)	(1.187679e+02 3.524146e+02 2.218559e-16)	(8.310176e-01 -2.021572e-01 -4.382401e-20)
0.010437      	(1.198778e+02 3.528401e+02 1.974707e-16)	(1.190478e+02 3.530411e+02 1.975352e-16)	(8.299143e-01 -2.010358e-01 -6.456206e-20)
0.0105116     	(1.203945e+02 3.535421e+02 1.810298e-16)	(1.195657e+02 3.537420e+02 1.811150e-16)	(8.287893e-01 -1.999256e-01 -8.523751e-20)
0.0105863     	(1.208485e+02 3.546352e+02 1.631156e-16)	(1.200208e+02 3.548340e+02 1.632215e-16)	(8.276760e-01 -1.988371e-01 -1.058896e-19)
0.0106609     	(1.212549e+02 3.554362e+02 1.461692e-16)	(1.204283e+02 3.556340e+02 1.462953e-16)	(8.266042e-01 -1.977737e-01 -1.260941e-19)
0.0107355     	(1.217642e+02 3.565868e+02 1.327427e-16)	(1.209387e+02 3.567835e+02 1.328891e-16)	(8.255086e-01 -1.967297e-01 -1.463776e-19)
0.0108099     	(1.220838e+02 3.567687e+02 1.218898e-16)	(1.212595e+02 3.569644e+02 1.220558e-16)	(8.243956e-01 -1.957153e-01 -1.660290e-19)
0.0108843     	(1.221441e+02 3.568401e+02 1.049613e-16)	(1.213208e+02 3.570348e+02 1.051471e-16)	(8.233316e-01 -1.947087e-01 -1.858207e-19)
0.0109587     	(1.225317e+02 3.576966e+02 9.311478e-17)	(1.217094e+02 3.578903e+02 9.331997e-17)	(8.223018e-01 -1.937001e-01 -2.051927e-19)
0.0110329     	(1.224519e+02 3.570201e+02 7.551596e-17)	(1.216306e+02 3.572128e+02 7.573953e-17)	(8.213310e-01 -1.927009e-01 -2.235754e-19)
0.0111071     	(1.224823e+02 3.568052e+02 6.014907e-17)	(1.216619e+02 3.569969e+02 6.038952e-17)	(8.203513e-01 -1.917057e-01 -2.404427e-19)
0.0111813     	(1.222624e+02 3.562623e+02 4.210240e-17)	(1.214430e+02 3.564530e+02 4.235730e-17)	(8.193812e-01 -1.907195e-01 -2.549049e-19)
0.0112555     	(1.223622e+02 3.564318e+02 2.695254e-17)	(1.215437e+02 3.566216e+02 2.721842e-17)	(8.184485e-01 -1.897606e-01 -2.658841e-19)
0.0113295     	(1.225315e+02 3.562854e+02 1.403319e-17)	(1.217139e+02 3.564742e+02 1.430735e-17)	(8.175852e-01 -1.888433e-01 -2.741563e-19)
0.0114036     	(1.226964e+02 3.565528e+02 -4.440147e-19)	(1.218798e+02 3.567407e+02 -1.647663e-19)	(8.166809e-01 -1.879774e-01 -2.792484e-19)
0.0114777     	(1.226844e+02 3.564744e+02 -1.488135e-17)	(1.218686e+02 3.566615e+02 -1.460027e-17)	(8.158021e-01 -1.871378e-01 -2.810795e-19)
0.0115517     	(1.225849e+02 3.560652e+02 -2.862772e-17)	(1.217700e+02 3.562516e+02 -2.834788e-17)	(8.149785e-01 -1.863434e-01 -2.798477e-19)
0.0116257     	(1.224559e+02 3.549847e+02 -4.189338e-17)	(1.216417e+02 3.551703e+02 -4.161710e-17)	(8.141948e-01 -1.855848e-01 -2.762777e-19)
0.0116997     	(1.223233e+02 3.542432e+02 -5.527520e-17)	(1.215099e+02 3.544280e+02 -5.500391e-17)	(8.133952e-01 -1.848479e-01 -2.712925e-19)
0.0117737     	(1.220570e+02 3.533414e+02 -6.772243e-17)	(1.212444e+02 3.535255e+02 -6.745677e-17)	(8.126087e-01 -1.841218e-01 -2.656609e-19)
0.0118476     	(1.215517e+02 3.519173e+02 -8.372642e-17)	(1.207398e+02 3.521007e+02 -8.346617e-17)	(8.118682e-01 -1.834142e-01 -2.602462e-19)
0.0119215     	(1.212484e+02 3.503751e+02 -9.232408e-17)	(1.204373e+02 3.505578e+02 -9.206933e-17)	(8.111587e-01 -1.827301e-01 -2.547446e-19)
0.0119952     	(1.208917e+02 3.489748e+02 -1.035848e-16)	(1.200813e+02 3.491569e+02 -1.033352e-16)	(8.104670e-01 -1.820824e-01 -2.495580e-19)
0.0120688     	(1.206082e+02 3.479013e+02 -1.132789e-16)	(1.197985e+02 3.480827e+02 -1.130341e-16)	(8.097727e-01 -1.814778e-01 -2.447619e-19)
0.0121423     	(1.202066e+02 3.467172e+02 -1.233277e-16)	(1.193975e+02 3.468980e+02 -1.230876e-16)	(8.090899e-01 -1.808869e-01 -2.401814e-19)
0.0122157     	(1.199797e+02 3.455764e+02 -1.313208e-16)	(1.191713e+02 3.457567e+02 -1.310853e-16)	(8.084317e-01 -1.803115e-01 -2.355478e-19)
0.0122891     	(1.196672e+02 3.441752e+02 -1.392049e-16)	(1.188594e+02 3.443549e+02 -1.389743e-16)	(8.077948e-01 -1.797322e-01 -2.305798e-19)
0.0123625     	(1.195099e+02 3.433739e+02 -1.459904e-16)	(1.187028e+02 3.435530e+02 -1.457653e-16)	(8.071291e-01 -1.791579e-01 -2.251469e-19)
0.0124357     	(1.192577e+02 3.424730e+02 -1.539514e-16)	(1.184512e+02 3.426516e+02 -1.537323e-16)	(8.064725e-01 -1.785920e-01 -2.190189e-19)
0.012509      	(1.191046e+02 3.416167e+02 -1.610766e-16)	(1.182988e+02 3.417948e+02 -1.608644e-16)	(8.058091e-01 -1.780592e-01 -2.122311e-19)
0.0125821     	(1.191390e+02 3.409701e+02 -1.661767e-16)	(1.183338e+02 3.411476e+02 -1.659718e-16)	(8.051544e-01 -1.775211e-01 -2.049567e-19)
0.0126553     	(1.193651e+02 3.410609e+02 -1.692819e-16)	(1.185606e+02 3.412379e+02 -1.690846e-16)	(8.044760e-01 -1.769560e-01 -1.973277e-19)
0.0127284     	(1.198345e+02 3.418895e+02 -1.699139e-16)	(1.190308e+02 3.420659e+02 -1.697237e-16)	(8.037026e-01 -1.763746e-01 -1.901630e-19)
0.0128015     	(1.201770e+02 3.426339e+02 -1.731179e-16)	(1.193741e+02 3.428096e+02 -1.729344e-16)	(8.028714e-01 -1.757721e-01 -1.835846e-19)
0.0128746     	(1.206780e+02 3.436297e+02 -1.725981e-16)	(1.198761e+02 3.438048e+02 -1.724200e-16)	(8.019500e-01 -1.751229e-01 -1.780659e-19)
0.0129477     	(1.204174e+02 3.423969e+02 -1.830485e-16)	(1.196164e+02 3.425713e+02 -1.828747e-16)	(8.009902e-01 -1.743990e-01 -1.738046e-19)
0.0130207     	(1.205305e+02 3.420998e+02 -1.890462e-16)	(1.197305e+02 3.422735e+02 -1.888754e-16)	(7.999819e-01 -1.736476e-01 -1.708317e-19)
0.0130938     	(1.205793e+02 3.420049e+02 -1.964930e-16)	(1.197804e+02 3.421777e+02 -1.963236e-16)	(7.989101e-01 -1.728649e-01 -1.693790e-19)
0.0131668     	(1.210179e+02 3.430537e+02 -1.989657e-16)	(1.202202e+02 3.432258e+02 -1.987964e-16)	(7.977673e-01 -1.720674e-01 -1.692793e-19)
0.0132398     	(1.215531e+02 3.440979e+02 -2.002375e-16)	(1.207565e+02 3.442692e+02 -2.000671e-16)	(7.965746e-01 -1.712425e-01 -1.704239e-19)
0.0133128     	(1.221622e+02 3.450971e+02 -2.000989e-16)	(1.213669e+02 3.452676e+02 -1.999262e-16)	(7.953633e-01 -1.704076e-01 -1.726487e-19)
0.0133858     	(1.228363e+02 3.464701e+02 -1.986098e-16)	(1.220422e+02 3.466397e+02 -1.984341e-16)	(7.941095e-01 -1.695622e-01 -1.757118e-19)
0.0134587     	(1.235979e+02 3.482176e+02 -1.973812e-16)	(1.228051e+02 3.483863e+02 -1.972019e-16)	(7.928293e-01 -1.686928e-01 -1.792935e-19)
0.0135317     	(1.243964e+02 3.500499e+02 -1.945271e-16)	(1.236049e+02 3.502177e+02 -1.943440e-16)	(7.914808e-01 -1.678004e-01 -1.831155e-19)
0.0136047     	(1.253075e+02 3.518569e+02 -1.899107e-16)	(1.245175e+02 3.520238e+02 -1.897237e-16)	(7.900482e-01 -1.668874e-01 -1.870186e-19)
0.0136778     	(1.261875e+02 3.538155e+02 -1.852381e-16)	(1.253989e+02 3.539815e+02 -1.850471e-16)	(7.885255e-01 -1.659528e-01 -1.909584e-19)
0.0137508     	(1.270608e+02 3.560259e+02 -1.791381e-16)	(1.262739e+02 3.561909e+02 -1.789434e-16)	(7.869115e-01 -1.650084e-01 -1.946898e-19)
0.0138239     	(1.279934e+02 3.582587e+02 -1.727792e-16)	(1.272082e+02 3.584228e+02 -1.725808e-16)	(7.852109e-01 -1.640476e-01 -1.983856e-19)
0.013897      	(1.289025e+02 3.604942e+02 -1.658960e-16)	(1.281190e+02 3.606572e+02 -1.656941e-16)	(7.834160e-01 -1.630701e-01 -2.019168e-19)
0.0139701     	(1.298083e+02 3.626124e+02 -1.591349e-16)	(1.290268e+02 3.627745e+02 -1.589297e-16)	(7.815489e-01 -1.620993e-01 -2.052089e-19)
0.0140433     	(1.307424e+02 3.647549e+02 -1.522467e-16)	(1.299628e+02 3.649160e+02 -1.520383e-16)	(7.796184e-01 -1.611328e-01 -2.083673e-19)
0.0141167     	(1.318447e+02 3.671661e+02 -1.438194e-16)	(1.310671e+02 3.673262e+02 -1.436079e-16)	(7.775948e-01 -1.601678e-01 -2.114528e-19)
0.0141901     	(1.328412e+02 3.696439e+02 -1.372196e-16)	(1.320658e+02 3.698031e+02 -1.370052e-16)	(7.754570e-01 -1.591702e-01 -2.143757e-19)
0.0142636     	(1.337999e+02 3.719092e+02 -1.307788e-16)	(1.330267e+02 3.720673e+02 -1.305617e-16)	(7.731935e-01 -1.581439e-01 -2.170525e-19)
0.0143372     	(1.348723e+02 3.743457e+02 -1.220541e-16)	(1.341015e+02 3.745028e+02 -1.218347e-16)	(7.708112e-01 -1.571030e-01 -2.193741e-19)
0.0144109     	(1.360837e+02 3.771878e+02 -1.114257e-16)	(1.353154e+02 3.773438e+02 -1.112046e-16)	(7.683045e-01 -1.560341e-01 -2.210866e-19)
0.0144847     	(1.373629e+02 3.803489e+02 -1.005727e-16)	(1.365972e+02 3.805039e+02 -1.003506e-16)	(7.656668e-01 -1.549319e-01 -2.221249e-19)
0.0145586     	(1.385806e+02 3.835043e+02 -9.047344e-17)	(1.378177e+02 3.836581e+02 -9.025098e-17)	(7.628885e-01 -1.537843e-01 -2.224568e-19)
0.0146327     	(1.396372e+02 3.859253e+02 -8.071153e-17)	(1.388772e+02 3.860779e+02 -8.048951e-17)	(7.599893e-01 -1.525979e-01 -2.220166e-19)
0.0147068     	(1.408019e+02 3.886036e+02 -6.841617e-17)	(1.400449e+02 3.887550e+02 -6.819546e-17)	(7.569539e-01 -1.513736e-01 -2.207079e-19)
0.0147811     	(1.419692e+02 3.913439e+02 -5.574959e-17)	(1.412154e+02 3.914940e+02 -5.553109e-17)	(7.538165e-01 -1.501042e-01 -2.184957e-19)
0.0148555     	(1.431759e+02 3.943022e+02 -4.218121e-17)	(1.424253e+02 3.944509e+02 -4.196574e-17)	(7.505654e-01 -1.487690e-01 -2.154741e-19)
0.01493       	(1.443909e+02 3.972337e+02 -2.716424e-17)	(1.436437e+02 3.973810e+02 -2.695253e-17)	(7.472090e-01 -1.473709e-01 -2.117130e-19)