# Moment      
# CofR        : (5.000000e+00 5.000000e-03 0.000000e+00)
#
# Time        	(total_x total_y total_z)	(pressure_x pressure_y pressure_z)	(viscous_x viscous_y viscous_z)
1.20005e-05   	(-7.720626e+03 3.978598e+03 -7.626223e+05)	(-7.720629e+03 3.978558e+03 -7.626226e+05)	(2.933585e-03 4.025495e-02 3.053706e-01)
2.64017e-05   	(-2.027880e+02 1.125390e+02 -2.004752e+04)	(-2.027921e+02 1.124996e+02 -2.004794e+04)	(4.058882e-03 3.946747e-02 4.163965e-01)
4.36833e-05   	(-3.784999e+01 2.212647e+01 -3.739362e+03)	(-3.785457e+01 2.208711e+01 -3.739830e+03)	(4.579129e-03 3.936346e-02 4.677266e-01)
6.44211e-05   	(-1.850589e+01 8.250501e+00 -1.832103e+03)	(-1.851071e+01 8.211103e+00 -1.832594e+03)	(4.815869e-03 3.939737e-02 4.910585e-01)
8.93055e-05   	(-1.478761e+01 4.686074e+00 -1.466589e+03)	(-1.479258e+01 4.646606e+00 -1.467095e+03)	(4.970260e-03 3.946768e-02 5.062529e-01)
0.000119165   	(-1.451664e+01 4.363689e+00 -1.440008e+03)	(-1.452173e+01 4.324107e+00 -1.440525e+03)	(5.086485e-03 3.958192e-02 5.176810e-01)
0.00015499    	(-1.453296e+01 5.032092e+00 -1.440936e+03)	(-1.453814e+01 4.992330e+00 -1.441463e+03)	(5.180167e-03 3.976225e-02 5.268881e-01)
0.000197972   	(-1.508709e+01 5.820134e+00 -1.495247e+03)	(-1.509234e+01 5.780125e+00 -1.495781e+03)	(5.257583e-03 4.000865e-02 5.344924e-01)
0.000249416   	(-1.570101e+01 6.348965e+00 -1.555857e+03)	(-1.570633e+01 6.308658e+00 -1.556398e+03)	(5.325507e-03 4.030661e-02 5.411708e-01)
0.00030929    	(-1.575837e+01 6.517048e+00 -1.561694e+03)	(-1.576376e+01 6.476440e+00 -1.562242e+03)	(5.393790e-03 4.060788e-02 5.479074e-01)
0.000377525   	(-1.586035e+01 6.636519e+00 -1.571946e+03)	(-1.586585e+01 6.595626e+00 -1.572504e+03)	(5.494397e-03 4.089321e-02 5.578919e-01)
0.000454099   	(-1.648015e+01 6.902336e+00 -1.633389e+03)	(-1.648581e+01 6.861188e+00 -1.633964e+03)	(5.659461e-03 4.114796e-02 5.743239e-01)
0.00053576    	(-1.684285e+01 6.994148e+00 -1.669451e+03)	(-1.684875e+01 6.952773e+00 -1.670049e+03)	(5.901592e-03 4.137464e-02 5.984589e-01)
0.000612154   	(-1.624180e+01 6.771261e+00 -1.610301e+03)	(-1.624799e+01 6.729731e+00 -1.610927e+03)	(6.186611e-03 4.153096e-02 6.268751e-01)
0.000684753   	(-1.585848e+01 6.542111e+00 -1.572773e+03)	(-1.586497e+01 6.500483e+00 -1.573431e+03)	(6.494696e-03 4.162834e-02 6.575921e-01)
0.000754253   	(-1.544846e+01 6.276006e+00 -1.532665e+03)	(-1.545528e+01 6.234319e+00 -1.533354e+03)	(6.816428e-03 4.168699e-02 6.896660e-01)
0.000821629   	(-1.477187e+01 5.991878e+00 -1.465898e+03)	(-1.477902e+01 5.950152e+00 -1.466621e+03)	(7.150190e-03 4.172546e-02 7.229334e-01)
0.000888014   	(-1.422491e+01 5.780954e+00 -1.411787e+03)	(-1.423241e+01 5.739200e+00 -1.412544e+03)	(7.494868e-03 4.175325e-02 7.572799e-01)
0.000953738   	(-1.368883e+01 5.525979e+00 -1.358870e+03)	(-1.369669e+01 5.484198e+00 -1.359664e+03)	(7.856106e-03 4.178019e-02 7.932584e-01)
0.00101942    	(-1.303967e+01 5.162673e+00 -1.294973e+03)	(-1.304792e+01 5.120854e+00 -1.295806e+03)	(8.249349e-03 4.181855e-02 8.323986e-01)
0.00108558    	(-1.217342e+01 4.691135e+00 -1.209670e+03)	(-1.218213e+01 4.649238e+00 -1.210548e+03)	(8.708984e-03 4.189710e-02 8.781042e-01)
0.00115255    	(-1.109883e+01 4.046633e+00 -1.103929e+03)	(-1.110803e+01 4.004601e+00 -1.104857e+03)	(9.208058e-03 4.203256e-02 9.277122e-01)
0.00122072    	(-1.004337e+01 3.403265e+00 -9.998937e+02)	(-1.005300e+01 3.361068e+00 -1.000864e+03)	(9.636680e-03 4.219706e-02 9.703554e-01)
0.00129033    	(-8.661107e+00 2.497839e+00 -8.637908e+02)	(-8.671101e+00 2.455469e+00 -8.647967e+02)	(9.993916e-03 4.237051e-02 1.005935e+00)
0.00136       	(-5.454796e+00 3.358037e-01 -5.485090e+02)	(-5.465071e+00 2.932650e-01 -5.495429e+02)	(1.027488e-02 4.253868e-02 1.033957e+00)
0.00142922    	(1.813552e+00 -4.858044e+00 1.659327e+02)	(1.803166e+00 -4.900667e+00 1.648876e+02)	(1.038603e-02 4.262300e-02 1.045134e+00)
0.00149839    	(-1.668816e+00 -6.235744e+00 -1.810746e+02)	(-1.679158e+00 -6.278287e+00 -1.821154e+02)	(1.034162e-02 4.254337e-02 1.040814e+00)
0.0015681     	(-1.679585e+01 -1.076428e+00 -1.675507e+03)	(-1.680612e+01 -1.118774e+00 -1.676540e+03)	(1.026873e-02 4.234525e-02 1.033564e+00)
0.00163831    	(-1.641272e+01 1.866973e+00 -1.633592e+03)	(-1.642302e+01 1.824651e+00 -1.634629e+03)	(1.030321e-02 4.232198e-02 1.037017e+00)
0.00170907    	(-1.251176e+01 2.912096e+00 -1.244735e+03)	(-1.252217e+01 2.869646e+00 -1.245783e+03)	(1.041155e-02 4.245037e-02 1.047855e+00)
0.0017803     	(-1.152013e+01 3.047313e+00 -1.145970e+03)	(-1.153065e+01 3.004713e+00 -1.147029e+03)	(1.052637e-02 4.260029e-02 1.059344e+00)
0.00185183    	(-1.147095e+01 3.011478e+00 -1.141122e+03)	(-1.148159e+01 2.968732e+00 -1.142193e+03)	(1.064104e-02 4.274613e-02 1.070818e+00)
0.00192384    	(-1.149722e+01 3.042171e+00 -1.143675e+03)	(-1.150797e+01 2.999305e+00 -1.144757e+03)	(1.074816e-02 4.286566e-02 1.081541e+00)
0.00199628    	(-1.153833e+01 3.050136e+00 -1.147739e+03)	(-1.154919e+01 3.007149e+00 -1.148832e+03)	(1.085513e-02 4.298713e-02 1.092252e+00)
0.00206893    	(-1.171126e+01 3.120078e+00 -1.164799e+03)	(-1.172221e+01 3.076994e+00 -1.165902e+03)	(1.095501e-02 4.308431e-02 1.102257e+00)
0.00214136    	(-1.181677e+01 3.170489e+00 -1.175216e+03)	(-1.182783e+01 3.127305e+00 -1.176328e+03)	(1.105594e-02 4.318378e-02 1.112368e+00)
0.00221342    	(-1.194322e+01 3.232546e+00 -1.187708e+03)	(-1.195436e+01 3.189294e+00 -1.188830e+03)	(1.114679e-02 4.325240e-02 1.121474e+00)
0.00228527    	(-1.210676e+01 3.308038e+00 -1.203843e+03)	(-1.211799e+01 3.264727e+00 -1.204974e+03)	(1.123470e-02 4.331096e-02 1.130287e+00)
0.00235712    	(-1.223507e+01 3.373296e+00 -1.216499e+03)	(-1.224639e+01 3.329940e+00 -1.217638e+03)	(1.131970e-02 4.335587e-02 1.138811e+00)
0.00242881    	(-1.235766e+01 3.427024e+00 -1.228599e+03)	(-1.236908e+01 3.383616e+00 -1.229747e+03)	(1.141434e-02 4.340833e-02 1.148293e+00)
0.00250087    	(-1.239920e+01 3.458963e+00 -1.232703e+03)	(-1.241074e+01 3.415444e+00 -1.233863e+03)	(1.153875e-02 4.351921e-02 1.160743e+00)
0.00257277    	(-1.249886e+01 3.505878e+00 -1.242542e+03)	(-1.251047e+01 3.462359e+00 -1.243710e+03)	(1.160501e-02 4.351928e-02 1.167399e+00)
0.002645      	(-1.258783e+01 3.556429e+00 -1.251310e+03)	(-1.259951e+01 3.512912e+00 -1.252484e+03)	(1.167181e-02 4.351738e-02 1.174109e+00)
0.00271722    	(-1.264672e+01 3.580746e+00 -1.257128e+03)	(-1.265850e+01 3.537149e+00 -1.258312e+03)	(1.177623e-02 4.359727e-02 1.184565e+00)
0.00278949    	(-1.271179e+01 3.618680e+00 -1.263545e+03)	(-1.272363e+01 3.575091e+00 -1.264736e+03)	(1.183898e-02 4.358909e-02 1.190873e+00)
0.00286182    	(-1.275611e+01 3.640535e+00 -1.267916e+03)	(-1.276803e+01 3.596934e+00 -1.269115e+03)	(1.191412e-02 4.360063e-02 1.198416e+00)
0.00293421    	(-1.280669e+01 3.652355e+00 -1.272924e+03)	(-1.281866e+01 3.608756e+00 -1.274129e+03)	(1.197238e-02 4.359844e-02 1.204276e+00)
0.00300664    	(-1.283851e+01 3.669257e+00 -1.276068e+03)	(-1.285054e+01 3.625663e+00 -1.277277e+03)	(1.202688e-02 4.359416e-02 1.209761e+00)
0.00307919    	(-1.282628e+01 3.664866e+00 -1.274862e+03)	(-1.283840e+01 3.621205e+00 -1.276081e+03)	(1.211889e-02 4.366114e-02 1.218983e+00)
0.0031519     	(-1.285395e+01 3.668743e+00 -1.277602e+03)	(-1.286611e+01 3.625090e+00 -1.278825e+03)	(1.216436e-02 4.365295e-02 1.223570e+00)
0.00322471    	(-1.287334e+01 3.675943e+00 -1.279519e+03)	(-1.288555e+01 3.632283e+00 -1.280747e+03)	(1.221526e-02 4.366042e-02 1.228696e+00)
0.0032977     	(-1.290338e+01 3.688424e+00 -1.282483e+03)	(-1.291565e+01 3.644752e+00 -1.283717e+03)	(1.226935e-02 4.367241e-02 1.234143e+00)
0.0033709     	(-1.294743e+01 3.702015e+00 -1.286841e+03)	(-1.295973e+01 3.658341e+00 -1.288079e+03)	(1.230598e-02 4.367403e-02 1.237849e+00)
0.00344422    	(-1.294640e+01 3.704247e+00 -1.286743e+03)	(-1.295877e+01 3.660520e+00 -1.287988e+03)	(1.236873e-02 4.372697e-02 1.244155e+00)
0.00351759    	(-1.297402e+01 3.712236e+00 -1.289479e+03)	(-1.298643e+01 3.668504e+00 -1.290727e+03)	(1.240659e-02 4.373155e-02 1.247984e+00)
0.00359107    	(-1.301049e+01 3.727064e+00 -1.293084e+03)	(-1.302294e+01 3.683311e+00 -1.294336e+03)	(1.244877e-02 4.375329e-02 1.252244e+00)
0.00366461    	(-1.303722e+01 3.741267e+00 -1.295724e+03)	(-1.304971e+01 3.697487e+00 -1.296981e+03)	(1.249106e-02 4.377973e-02 1.256514e+00)
0.00373826    	(-1.308324e+01 3.756955e+00 -1.300278e+03)	(-1.309577e+01 3.713147e+00 -1.301539e+03)	(1.252927e-02 4.380846e-02 1.260379e+00)
0.00381202    	(-1.312895e+01 3.775668e+00 -1.304801e+03)	(-1.314153e+01 3.731818e+00 -1.306067e+03)	(1.257720e-02 4.385008e-02 1.265214e+00)
0.00388584    	(-1.317989e+01 3.796720e+00 -1.309843e+03)	(-1.319251e+01 3.752838e+00 -1.311112e+03)	(1.261258e-02 4.388226e-02 1.268796e+00)
0.00395978    	(-1.321228e+01 3.807184e+00 -1.313052e+03)	(-1.322493e+01 3.763259e+00 -1.314324e+03)	(1.265060e-02 4.392471e-02 1.272642e+00)
0.00403377    	(-1.325598e+01 3.818511e+00 -1.317386e+03)	(-1.326868e+01 3.774537e+00 -1.318664e+03)	(1.270089e-02 4.397393e-02 1.277712e+00)
0.00410736    	(-1.332908e+01 3.852978e+00 -1.324604e+03)	(-1.334182e+01 3.808975e+00 -1.325886e+03)	(1.274330e-02 4.400292e-02 1.281998e+00)
0.00417995    	(-1.339525e+01 3.881163e+00 -1.331140e+03)	(-1.340802e+01 3.837118e+00 -1.332425e+03)	(1.277373e-02 4.404482e-02 1.285088e+00)
0.00425189    	(-1.342269e+01 3.894275e+00 -1.333852e+03)	(-1.343550e+01 3.850191e+00 -1.335140e+03)	(1.280121e-02 4.408448e-02 1.287884e+00)
0.0043235     	(-1.344280e+01 3.901794e+00 -1.335842e+03)	(-1.345563e+01 3.857673e+00 -1.337132e+03)	(1.282570e-02 4.412063e-02 1.290381e+00)
0.00439501    	(-1.347788e+01 3.920185e+00 -1.339299e+03)	(-1.349073e+01 3.876034e+00 -1.340592e+03)	(1.284817e-02 4.415055e-02 1.292678e+00)
0.00446662    	(-1.350721e+01 3.934930e+00 -1.342189e+03)	(-1.352009e+01 3.890741e+00 -1.343485e+03)	(1.288370e-02 4.418897e-02 1.296278e+00)
0.00453851    	(-1.353849e+01 3.951347e+00 -1.345268e+03)	(-1.355140e+01 3.907135e+00 -1.346567e+03)	(1.290446e-02 4.421166e-02 1.298405e+00)
0.00461077    	(-1.356848e+01 3.962690e+00 -1.348230e+03)	(-1.358140e+01 3.918460e+00 -1.349530e+03)	(1.292412e-02 4.423096e-02 1.300423e+00)
0.00468359    	(-1.360634e+01 3.978727e+00 -1.351966e+03)	(-1.361929e+01 3.934491e+00 -1.353270e+03)	(1.295227e-02 4.423656e-02 1.303288e+00)
0.00475702    	(-1.364458e+01 3.993347e+00 -1.355744e+03)	(-1.365754e+01 3.949098e+00 -1.357049e+03)	(1.296493e-02 4.424836e-02 1.304607e+00)
0.0048312     	(-1.366998e+01 3.999900e+00 -1.358260e+03)	(-1.368295e+01 3.955643e+00 -1.359566e+03)	(1.297594e-02 4.425631e-02 1.305764e+00)
0.00490532    	(-1.369883e+01 4.007053e+00 -1.361121e+03)	(-1.371182e+01 3.962790e+00 -1.362428e+03)	(1.298611e-02 4.426297e-02 1.306839e+00)
0.00497864    	(-1.374012e+01 4.021103e+00 -1.365203e+03)	(-1.375312e+01 3.976835e+00 -1.366511e+03)	(1.299581e-02 4.426866e-02 1.307864e+00)
0.00505134    	(-1.380024e+01 4.047128e+00 -1.371134e+03)	(-1.381324e+01 4.002858e+00 -1.372442e+03)	(1.300448e-02 4.426966e-02 1.308788e+00)
0.00512354    	(-1.382394e+01 4.053729e+00 -1.373483e+03)	(-1.383695e+01 4.009461e+00 -1.374792e+03)	(1.301096e-02 4.426775e-02 1.309492e+00)
0.00519531    	(-1.386750e+01 4.070212e+00 -1.377788e+03)	(-1.388053e+01 4.025952e+00 -1.379099e+03)	(1.302554e-02 4.426013e-02 1.311005e+00)
0.00526675    	(-1.391143e+01 4.089660e+00 -1.382120e+03)	(-1.392446e+01 4.045389e+00 -1.383432e+03)	(1.302945e-02 4.427073e-02 1.311456e+00)
0.00533804    	(-1.396073e+01 4.116267e+00 -1.386972e+03)	(-1.397377e+01 4.071984e+00 -1.388285e+03)	(1.304456e-02 4.428385e-02 1.313023e+00)
0.00540916    	(-1.399483e+01 4.128711e+00 -1.390339e+03)	(-1.400787e+01 4.084425e+00 -1.391652e+03)	(1.304003e-02 4.428647e-02 1.312630e+00)
0.00548017    	(-1.403728e+01 4.152723e+00 -1.394511e+03)	(-1.405031e+01 4.108437e+00 -1.395823e+03)	(1.303741e-02 4.428672e-02 1.312427e+00)
0.00555113    	(-1.407376e+01 4.170032e+00 -1.398105e+03)	(-1.408680e+01 4.125748e+00 -1.399417e+03)	(1.303492e-02 4.428348e-02 1.312237e+00)
0.00562204    	(-1.411495e+01 4.186857e+00 -1.402170e+03)	(-1.412798e+01 4.142579e+00 -1.403481e+03)	(1.302932e-02 4.427839e-02 1.311736e+00)
0.00569295    	(-1.415581e+01 4.206695e+00 -1.406196e+03)	(-1.416884e+01 4.162422e+00 -1.407508e+03)	(1.303230e-02 4.427314e-02 1.312094e+00)
0.00576396    	(-1.421656e+01 4.235196e+00 -1.412183e+03)	(-1.422958e+01 4.190930e+00 -1.413494e+03)	(1.302182e-02 4.426584e-02 1.311106e+00)
0.00583508    	(-1.427053e+01 4.258225e+00 -1.417509e+03)	(-1.428354e+01 4.213968e+00 -1.418819e+03)	(1.300952e-02 4.425719e-02 1.309937e+00)
0.00590637    	(-1.431131e+01 4.277220e+00 -1.421530e+03)	(-1.432430e+01 4.232971e+00 -1.422838e+03)	(1.299589e-02 4.424876e-02 1.308637e+00)
0.00597787    	(-1.435841e+01 4.298287e+00 -1.426175e+03)	(-1.437139e+01 4.254050e+00 -1.427483e+03)	(1.298205e-02 4.423714e-02 1.307315e+00)
0.00604964    	(-1.439799e+01 4.309530e+00 -1.430092e+03)	(-1.441095e+01 4.265307e+00 -1.431398e+03)	(1.296921e-02 4.422301e-02 1.306092e+00)
0.00612169    	(-1.444263e+01 4.331025e+00 -1.434493e+03)	(-1.445559e+01 4.286815e+00 -1.435798e+03)	(1.295460e-02 4.421038e-02 1.304695e+00)
0.00619401    	(-1.450201e+01 4.357581e+00 -1.440345e+03)	(-1.451495e+01 4.313381e+00 -1.441649e+03)	(1.294530e-02 4.419987e-02 1.303829e+00)
0.00626662    	(-1.454902e+01 4.377961e+00 -1.444980e+03)	(-1.456195e+01 4.333778e+00 -1.446282e+03)	(1.292380e-02 4.418263e-02 1.301743e+00)
0.00633956    	(-1.459526e+01 4.395906e+00 -1.449540e+03)	(-1.460816e+01 4.351742e+00 -1.450839e+03)	(1.289875e-02 4.416407e-02 1.299305e+00)
0.00641285    	(-1.463656e+01 4.417353e+00 -1.453604e+03)	(-1.464943e+01 4.373206e+00 -1.454901e+03)	(1.287055e-02 4.414696e-02 1.296554e+00)
0.00648654    	(-1.469022e+01 4.442777e+00 -1.458887e+03)	(-1.470306e+01 4.398649e+00 -1.460181e+03)	(1.284333e-02 4.412792e-02 1.293901e+00)
0.00656058    	(-1.473171e+01 4.464602e+00 -1.462967e+03)	(-1.474453e+01 4.420498e+00 -1.464259e+03)	(1.281541e-02 4.410429e-02 1.291177e+00)
0.0066345     	(-1.478085e+01 4.484754e+00 -1.467812e+03)	(-1.479364e+01 4.440668e+00 -1.469101e+03)	(1.279423e-02 4.408621e-02 1.289127e+00)
0.00670825    	(-1.484050e+01 4.513725e+00 -1.473686e+03)	(-1.485326e+01 4.469663e+00 -1.474972e+03)	(1.275985e-02 4.406206e-02 1.285763e+00)
0.00678188    	(-1.491398e+01 4.550927e+00 -1.480917e+03)	(-1.492670e+01 4.506891e+00 -1.482200e+03)	(1.272641e-02 4.403533e-02 1.282489e+00)
0.0068554     	(-1.496253e+01 4.573200e+00 -1.485698e+03)	(-1.497523e+01 4.529193e+00 -1.486977e+03)	(1.269071e-02 4.400656e-02 1.278991e+00)
0.00692886    	(-1.502262e+01 4.602273e+00 -1.491616e+03)	(-1.503528e+01 4.558295e+00 -1.492892e+03)	(1.265573e-02 4.397815e-02 1.275565e+00)
0.00700226    	(-1.508791e+01 4.632472e+00 -1.498052e+03)	(-1.510053e+01 4.588523e+00 -1.499324e+03)	(1.262049e-02 4.394920e-02 1.272113e+00)
0.00707566    	(-1.514806e+01 4.659948e+00 -1.503975e+03)	(-1.516065e+01 4.616022e+00 -1.505245e+03)	(1.259335e-02 4.392601e-02 1.269470e+00)
0.00714894    	(-1.520186e+01 4.690665e+00 -1.509262e+03)	(-1.521441e+01 4.646774e+00 -1.510528e+03)	(1.255297e-02 4.389037e-02 1.265505e+00)
0.00722211    	(-1.526784e+01 4.719887e+00 -1.515763e+03)	(-1.528035e+01 4.676034e+00 -1.517024e+03)	(1.251028e-02 4.385369e-02 1.261311e+00)
0.00729516    	(-1.533052e+01 4.746312e+00 -1.521940e+03)	(-1.534299e+01 4.702496e+00 -1.523197e+03)	(1.246706e-02 4.381556e-02 1.257063e+00)
0.00736816    	(-1.538871e+01 4.775148e+00 -1.527663e+03)	(-1.540113e+01 4.731370e+00 -1.528916e+03)	(1.242480e-02 4.377788e-02 1.252912e+00)
0.0074411     	(-1.545706e+01 4.814427e+00 -1.534377e+03)	(-1.546945e+01 4.770688e+00 -1.535626e+03)	(1.238402e-02 4.373925e-02 1.248908e+00)
0.00751398    	(-1.551167e+01 4.833351e+00 -1.539763e+03)	(-1.552401e+01 4.789651e+00 -1.541008e+03)	(1.234048e-02 4.370014e-02 1.244630e+00)
0.0075868     	(-1.556384e+01 4.854666e+00 -1.544900e+03)	(-1.557615e+01 4.810997e+00 -1.546141e+03)	(1.230674e-02 4.366861e-02 1.241330e+00)
0.00765963    	(-1.564129e+01 4.898980e+00 -1.552505e+03)	(-1.565355e+01 4.855354e+00 -1.553741e+03)	(1.225983e-02 4.362640e-02 1.236714e+00)
0.00773245    	(-1.571176e+01 4.932602e+00 -1.559438e+03)	(-1.572397e+01 4.889017e+00 -1.560670e+03)	(1.221221e-02 4.358435e-02 1.232028e+00)
0.00780522    	(-1.576596e+01 4.950443e+00 -1.564784e+03)	(-1.577812e+01 4.906901e+00 -1.566011e+03)	(1.216172e-02 4.354191e-02 1.227058e+00)
0.00787787    	(-1.583277e+01 4.983224e+00 -1.571354e+03)	(-1.584488e+01 4.939728e+00 -1.572576e+03)	(1.211102e-02 4.349615e-02 1.222065e+00)
0.00795046    	(-1.591949e+01 5.030338e+00 -1.579875e+03)	(-1.593156e+01 4.986887e+00 -1.581092e+03)	(1.206267e-02 4.345137e-02 1.217306e+00)
0.00802294    	(-1.599121e+01 5.062711e+00 -1.586934e+03)	(-1.600322e+01 5.019304e+00 -1.588147e+03)	(1.201296e-02 4.340674e-02 1.212413e+00)
0.00809536    	(-1.604734e+01 5.082638e+00 -1.592469e+03)	(-1.605930e+01 5.039277e+00 -1.593676e+03)	(1.196068e-02 4.336044e-02 1.207264e+00)
0.00816779    	(-1.612828e+01 5.134527e+00 -1.600405e+03)	(-1.614019e+01 5.091216e+00 -1.601607e+03)	(1.190884e-02 4.331143e-02 1.202157e+00)
0.00824015    	(-1.620160e+01 5.172688e+00 -1.607612e+03)	(-1.621347e+01 5.129419e+00 -1.608810e+03)	(1.186755e-02 4.326833e-02 1.198105e+00)
0.00831246    	(-1.625394e+01 5.196487e+00 -1.612763e+03)	(-1.626576e+01 5.153288e+00 -1.613957e+03)	(1.181872e-02 4.319855e-02 1.193301e+00)
0.00838477    	(-1.631926e+01 5.224053e+00 -1.619196e+03)	(-1.633102e+01 5.180907e+00 -1.620383e+03)	(1.175856e-02 4.314581e-02 1.187366e+00)
0.00845708    	(-1.640102e+01 5.274758e+00 -1.627215e+03)	(-1.641272e+01 5.231667e+00 -1.628396e+03)	(1.169996e-02 4.309060e-02 1.181586e+00)
0.00852933    	(-1.647386e+01 5.312111e+00 -1.634373e+03)	(-1.648550e+01 5.269076e+00 -1.635549e+03)	(1.163980e-02 4.303475e-02 1.175650e+00)
0.00860158    	(-1.652270e+01 5.335224e+00 -1.639176e+03)	(-1.653427e+01 5.292246e+00 -1.640346e+03)	(1.157752e-02 4.297872e-02 1.169504e+00)
0.00867389    	(-1.660271e+01 5.379997e+00 -1.647032e+03)	(-1.661422e+01 5.337075e+00 -1.648196e+03)	(1.151506e-02 4.292149e-02 1.163340e+00)
0.0087462     	(-1.667235e+01 5.422767e+00 -1.653861e+03)	(-1.668380e+01 5.379902e+00 -1.655018e+03)	(1.145276e-02 4.286501e-02 1.157190e+00)
0.00881857    	(-1.673353e+01 5.455343e+00 -1.659873e+03)	(-1.674492e+01 5.412537e+00 -1.661024e+03)	(1.139024e-02 4.280582e-02 1.151021e+00)
0.00889099    	(-1.678314e+01 5.479037e+00 -1.664753e+03)	(-1.679446e+01 5.436292e+00 -1.665898e+03)	(1.132668e-02 4.274508e-02 1.144749e+00)
0.00896347    	(-1.684835e+01 5.519806e+00 -1.671149e+03)	(-1.685963e+01 5.477140e+00 -1.672289e+03)	(1.127430e-02 4.266589e-02 1.139591e+00)
0.00903601    	(-1.691269e+01 5.556466e+00 -1.677467e+03)	(-1.692390e+01 5.513856e+00 -1.678600e+03)	(1.120936e-02 4.260993e-02 1.133179e+00)
0.00910867    	(-1.696699e+01 5.582490e+00 -1.682812e+03)	(-1.697813e+01 5.539937e+00 -1.683939e+03)	(1.114354e-02 4.255317e-02 1.126680e+00)
0.00918138    	(-1.702710e+01 5.614328e+00 -1.688726e+03)	(-1.703817e+01 5.571831e+00 -1.689846e+03)	(1.107656e-02 4.249687e-02 1.120067e+00)
0.00925421    	(-1.708794e+01 5.651127e+00 -1.694701e+03)	(-1.709895e+01 5.608686e+00 -1.695814e+03)	(1.100978e-02 4.244130e-02 1.113471e+00)
0.00932715    	(-1.713564e+01 5.681912e+00 -1.699384e+03)	(-1.714659e+01 5.639529e+00 -1.700491e+03)	(1.094442e-02 4.238335e-02 1.107018e+00)
0.00940022    	(-1.716779e+01 5.697078e+00 -1.702556e+03)	(-1.717867e+01 5.654754e+00 -1.703657e+03)	(1.087973e-02 4.232376e-02 1.100632e+00)
0.0094734     	(-1.721609e+01 5.728655e+00 -1.707297e+03)	(-1.722691e+01 5.686405e+00 -1.708393e+03)	(1.082667e-02 4.224970e-02 1.095406e+00)
0.0095467     	(-1.725325e+01 5.753139e+00 -1.710945e+03)	(-1.726401e+01 5.710944e+00 -1.712034e+03)	(1.075992e-02 4.219540e-02 1.088814e+00)
0.00962012    	(-1.727795e+01 5.773740e+00 -1.713359e+03)	(-1.728864e+01 5.731601e+00 -1.714441e+03)	(1.069469e-02 4.213941e-02 1.082373e+00)
0.00969372    	(-1.731168e+01 5.792811e+00 -1.716675e+03)	(-1.732231e+01 5.750730e+00 -1.717751e+03)	(1.062954e-02 4.208142e-02 1.075940e+00)
0.00976744    	(-1.735002e+01 5.820593e+00 -1.720431e+03)	(-1.736059e+01 5.778569e+00 -1.721500e+03)	(1.056607e-02 4.202428e-02 1.069673e+00)
0.00984134    	(-1.738086e+01 5.842399e+00 -1.723454e+03)	(-1.739137e+01 5.800432e+00 -1.724517e+03)	(1.050330e-02 4.196708e-02 1.063476e+00)
0.00991542    	(-1.741046e+01 5.857245e+00 -1.726369e+03)	(-1.742090e+01 5.815337e+00 -1.727426e+03)	(1.044265e-02 4.190801e-02 1.057491e+00)
0.00998969    	(-1.745037e+01 5.886205e+00 -1.730277e+03)	(-1.746075e+01 5.844357e+00 -1.731329e+03)	(1.038359e-02 4.184814e-02 1.051664e+00)
0.0100641     	(-1.747652e+01 5.903104e+00 -1.732845e+03)	(-1.748685e+01 5.861314e+00 -1.733891e+03)	(1.032656e-02 4.179052e-02 1.046038e+00)
0.0101387     	(-1.750762e+01 5.921901e+00 -1.735899e+03)	(-1.751790e+01 5.880181e+00 -1.736940e+03)	(1.027944e-02 4.172008e-02 1.041401e+00)
0.0102133     	(-1.753578e+01 5.935698e+00 -1.738673e+03)	(-1.754600e+01 5.894035e+00 -1.739709e+03)	(1.022061e-02 4.166295e-02 1.035594e+00)
0.0102879     	(-1.757969e+01 5.961962e+00 -1.742986e+03)	(-1.758985e+01 5.920356e+00 -1.744015e+03)	(1.016363e-02 4.160591e-02 1.029970e+00)
0.0103624     	(-1.761062e+01 5.979947e+00 -1.746025e+03)	(-1.762073e+01 5.938396e+00 -1.747050e+03)	(1.010786e-02 4.155088e-02 1.024465e+00)
0.010437      	(-1.764200e+01 5.993888e+00 -1.749119e+03)	(-1.765206e+01 5.952392e+00 -1.750138e+03)	(1.005179e-02 4.149572e-02 1.018931e+00)
0.0105116     	(-1.767710e+01 6.019723e+00 -1.752553e+03)	(-1.768710e+01 5.978284e+00 -1.753566e+03)	(9.996282e-03 4.143947e-02 1.013450e+00)
0.0105863     	(-1.773176e+01 6.042424e+00 -1.757937e+03)	(-1.774170e+01 6.001040e+00 -1.758945e+03)	(9.941857e-03 4.138380e-02 1.008075e+00)
0.0106609     	(-1.777181e+01 6.062746e+00 -1.761874e+03)	(-1.778170e+01 6.021416e+00 -1.762877e+03)	(9.888686e-03 4.133021e-02 1.002824e+00)
0.0107355     	(-1.782934e+01 6.088209e+00 -1.767531e+03)	(-1.783917e+01 6.046933e+00 -1.768529e+03)	(9.836485e-03 4.127543e-02 9.976682e-01)
0.0108099     	(-1.783843e+01 6.104192e+00 -1.768406e+03)	(-1.784822e+01 6.062973e+00 -1.769399e+03)	(9.785765e-03 4.121978e-02 9.926581e-01)
0.0108843     	(-1.784200e+01 6.107204e+00 -1.768765e+03)	(-1.785174e+01 6.066038e+00 -1.769753e+03)	(9.735436e-03 4.116658e-02 9.876878e-01)
0.0109587     	(-1.788483e+01 6.126585e+00 -1.772983e+03)	(-1.789452e+01 6.085470e+00 -1.773965e+03)	(9.685006e-03 4.111509e-02 9.827079e-01)
0.0110329     	(-1.785101e+01 6.122597e+00 -1.769647e+03)	(-1.786064e+01 6.081531e+00 -1.770625e+03)	(9.635045e-03 4.106655e-02 9.777756e-01)
0.0111071     	(-1.784026e+01 6.124114e+00 -1.768591e+03)	(-1.784984e+01 6.083097e+00 -1.769564e+03)	(9.585283e-03 4.101757e-02 9.728624e-01)
0.0111813     	(-1.781312e+01 6.113118e+00 -1.765940e+03)	(-1.782265e+01 6.072149e+00 -1.766908e+03)	(9.535975e-03 4.096906e-02 9.679938e-01)
0.0112555     	(-1.782159e+01 6.118109e+00 -1.766786e+03)	(-1.783108e+01 6.077187e+00 -1.767749e+03)	(9.488031e-03 4.092242e-02 9.632593e-01)
0.0113295     	(-1.781427e+01 6.126574e+00 -1.766055e+03)	(-1.782371e+01 6.085695e+00 -1.767014e+03)	(9.442164e-03 4.087926e-02 9.587307e-01)
0.0114036     	(-1.782764e+01 6.134822e+00 -1.767379e+03)	(-1.783704e+01 6.093988e+00 -1.768333e+03)	(9.398871e-03 4.083404e-02 9.544534e-01)
0.0114777     	(-1.782372e+01 6.134219e+00 -1.767009e+03)	(-1.783308e+01 6.093428e+00 -1.767959e+03)	(9.356891e-03 4.079011e-02 9.503053e-01)
0.0115517     	(-1.780326e+01 6.129247e+00 -1.765007e+03)	(-1.781258e+01 6.088498e+00 -1.765954e+03)	(9.317171e-03 4.074892e-02 9.463814e-01)
0.0116257     	(-1.774923e+01 6.122793e+00 -1.759674e+03)	(-1.775851e+01 6.082083e+00 -1.760617e+03)	(9.279242e-03 4.070974e-02 9.426361e-01)
0.0116997     	(-1.771216e+01 6.116164e+00 -1.756026e+03)	(-1.772140e+01 6.075495e+00 -1.756965e+03)	(9.242395e-03 4.066976e-02 9.389967e-01)
0.0117737     	(-1.766707e+01 6.102852e+00 -1.751601e+03)	(-1.767628e+01 6.062221e+00 -1.752536e+03)	(9.206088e-03 4.063043e-02 9.354103e-01)
0.0118476     	(-1.759587e+01 6.077583e+00 -1.744612e+03)	(-1.760504e+01 6.036990e+00 -1.745544e+03)	(9.170711e-03 4.059341e-02 9.319165e-01)
0.0119215     	(-1.751875e+01 6.062421e+00 -1.737012e+03)	(-1.752789e+01 6.021863e+00 -1.737941e+03)	(9.136507e-03 4.055794e-02 9.285387e-01)
0.0119952     	(-1.744874e+01 6.044587e+00 -1.730125e+03)	(-1.745784e+01 6.004063e+00 -1.731050e+03)	(9.104121e-03 4.052335e-02 9.253404e-01)
0.0120688     	(-1.739506e+01 6.030411e+00 -1.724849e+03)	(-1.740414e+01 5.989923e+00 -1.725771e+03)	(9.073891e-03 4.048863e-02 9.223538e-01)
0.0121423     	(-1.733586e+01 6.010329e+00 -1.719039e+03)	(-1.734490e+01 5.969875e+00 -1.719959e+03)	(9.044344e-03 4.045449e-02 9.194346e-01)
0.0122157     	(-1.727882e+01 5.998985e+00 -1.713422e+03)	(-1.728784e+01 5.958563e+00 -1.714339e+03)	(9.015575e-03 4.042159e-02 9.165926e-01)
0.0122891     	(-1.720876e+01 5.983360e+00 -1.706521e+03)	(-1.721775e+01 5.942971e+00 -1.707435e+03)	(8.986611e-03 4.038974e-02 9.137319e-01)
0.0123625     	(-1.716869e+01 5.975495e+00 -1.702582e+03)	(-1.717765e+01 5.935139e+00 -1.703493e+03)	(8.957893e-03 4.035646e-02 9.108943e-01)
0.0124357     	(-1.712365e+01 5.962883e+00 -1.698159e+03)	(-1.713258e+01 5.922559e+00 -1.699068e+03)	(8.929602e-03 4.032362e-02 9.080989e-01)
0.012509      	(-1.708083e+01 5.955229e+00 -1.693938e+03)	(-1.708974e+01 5.914938e+00 -1.694843e+03)	(8.902958e-03 4.029045e-02 9.054674e-01)
0.0125821     	(-1.704851e+01 5.956949e+00 -1.690739e+03)	(-1.705738e+01 5.916692e+00 -1.691642e+03)	(8.876054e-03 4.025772e-02 9.028104e-01)
0.0126553     	(-1.705305e+01 5.968254e+00 -1.691177e+03)	(-1.706189e+01 5.928030e+00 -1.692077e+03)	(8.847799e-03 4.022380e-02 9.000194e-01)
0.0127284     	(-1.709447e+01 5.991723e+00 -1.695250e+03)	(-1.710329e+01 5.951538e+00 -1.696147e+03)	(8.818732e-03 4.018513e-02 8.971442e-01)
0.0128015     	(-1.713169e+01 6.008851e+00 -1.698918e+03)	(-1.714048e+01 5.968707e+00 -1.699812e+03)	(8.788604e-03 4.014357e-02 8.941621e-01)
0.0128746     	(-1.718148e+01 6.033902e+00 -1.703810e+03)	(-1.719024e+01 5.993804e+00 -1.704701e+03)	(8.756147e-03 4.009750e-02 8.909472e-01)
0.0129477     	(-1.711985e+01 6.020869e+00 -1.697732e+03)	(-1.712857e+01 5.980819e+00 -1.698620e+03)	(8.719948e-03 4.004951e-02 8.873640e-01)
0.0130207     	(-1.710499e+01 6.026523e+00 -1.696254e+03)	(-1.711367e+01 5.986524e+00 -1.697138e+03)	(8.682381e-03 3.999910e-02 8.836453e-01)
0.0130938     	(-1.710024e+01 6.028964e+00 -1.695786e+03)	(-1.710889e+01 5.989018e+00 -1.696666e+03)	(8.643246e-03 3.994550e-02 8.797712e-01)
0.0131668     	(-1.715269e+01 6.050897e+00 -1.700946e+03)	(-1.716129e+01 6.011008e+00 -1.701821e+03)	(8.603371e-03 3.988837e-02 8.758218e-01)
0.0132398     	(-1.720490e+01 6.077655e+00 -1.706066e+03)	(-1.721346e+01 6.037827e+00 -1.706938e+03)	(8.562127e-03 3.982873e-02 8.717345e-01)
0.0133128     	(-1.725486e+01 6.108111e+00 -1.710953e+03)	(-1.726338e+01 6.068343e+00 -1.711821e+03)	(8.520378e-03 3.976816e-02 8.675955e-01)
0.0133858     	(-1.732351e+01 6.141816e+00 -1.717686e+03)	(-1.733198e+01 6.102111e+00 -1.718550e+03)	(8.478111e-03 3.970548e-02 8.634028e-01)
0.0134587     	(-1.741088e+01 6.179895e+00 -1.726275e+03)	(-1.741931e+01 6.140254e+00 -1.727135e+03)	(8.434640e-03 3.964147e-02 8.590874e-01)
0.0135317     	(-1.750249e+01 6.219821e+00 -1.735276e+03)	(-1.751088e+01 6.180247e+00 -1.736131e+03)	(8.390019e-03 3.957404e-02 8.546548e-01)
0.0136047     	(-1.759284e+01 6.265376e+00 -1.744134e+03)	(-1.760119e+01 6.225873e+00 -1.744984e+03)	(8.344368e-03 3.950241e-02 8.501178e-01)
0.0136778     	(-1.769078e+01 6.309373e+00 -1.753743e+03)	(-1.769907e+01 6.269947e+00 -1.754589e+03)	(8.297640e-03 3.942627e-02 8.454716e-01)
0.0137508     	(-1.780130e+01 6.353040e+00 -1.764601e+03)	(-1.780955e+01 6.313695e+00 -1.765442e+03)	(8.250418e-03 3.934558e-02 8.407737e-01)
0.0138239     	(-1.791294e+01 6.399669e+00 -1.775561e+03)	(-1.792114e+01 6.360409e+00 -1.776397e+03)	(8.202378e-03 3.926054e-02 8.359913e-01)
0.013897      	(-1.802471e+01 6.445123e+00 -1.786536e+03)	(-1.803286e+01 6.405952e+00 -1.787367e+03)	(8.153504e-03 3.917080e-02 8.311230e-01)
0.0139701     	(-1.813062e+01 6.490417e+00 -1.796928e+03)	(-1.813872e+01 6.451339e+00 -1.797754e+03)	(8.104966e-03 3.907745e-02 8.262853e-01)
0.0140433     	(-1.823774e+01 6.537121e+00 -1.807438e+03)	(-1.824580e+01 6.498140e+00 -1.808260e+03)	(8.056639e-03 3.898092e-02 8.214661e-01)
0.0141167     	(-1.835830e+01 6.592233e+00 -1.819263e+03)	(-1.836631e+01 6.553353e+00 -1.820080e+03)	(8.008389e-03 3.887974e-02 8.166507e-01)
0.0141901     	(-1.848220e+01 6.642060e+00 -1.831434e+03)	(-1.849016e+01 6.603288e+00 -1.832246e+03)	(7.958509e-03 3.877285e-02 8.116694e-01)
0.0142636     	(-1.859546e+01 6.689994e+00 -1.842553e+03)	(-1.860337e+01 6.651334e+00 -1.843360e+03)	(7.907194e-03 3.865967e-02 8.065417e-01)
0.0143372     	(-1.871728e+01 6.743614e+00 -1.854507e+03)	(-1.872514e+01 6.705073e+00 -1.855308e+03)	(7.855149e-03 3.854056e-02 8.013378e-01)
0.0144109     	(-1.885939e+01 6.804186e+00 -1.868456e+03)	(-1.886719e+01 6.765771e+00 -1.869252e+03)	(7.801707e-03 3.841522e-02 7.959920e-01)
0.0144847     	(-1.901745e+01 6.868144e+00 -1.883983e+03)	(-1.902519e+01 6.829860e+00 -1.884773e+03)	(7.746597e-03 3.828334e-02 7.904771e-01)
0.0145586     	(-1.917522e+01 6.929030e+00 -1.899489e+03)	(-1.918291e+01 6.890885e+00 -1.900274e+03)	(7.689216e-03 3.814442e-02 7.847335e-01)
0.0146327     	(-1.929627e+01 6.981860e+00 -1.911367e+03)	(-1.930390e+01 6.943860e+00 -1.912146e+03)	(7.629893e-03 3.799946e-02 7.787950e-01)
0.0147068     	(-1.943018e+01 7.040093e+00 -1.924510e+03)	(-1.943775e+01 7.002246e+00 -1.925283e+03)	(7.568682e-03 3.784770e-02 7.726679e-01)
0.0147811     	(-1.956720e+01 7.098461e+00 -1.937963e+03)	(-1.957470e+01 7.060770e+00 -1.938729e+03)	(7.505208e-03 3.769083e-02 7.663159e-01)