# Moment      
# CofR        : (5.000000e+00 5.000000e-03 0.000000e+00)
#
# Time        	(total_x total_y total_z)	(pressure_x pressure_y pressure_z)	(viscous_x viscous_y viscous_z)
1.20005e-05   	(-3.830470e+03 1.907463e+03 -3.784357e+05)	(-3.830472e+03 1.907419e+03 -3.784360e+05)	(2.314897e-03 4.358085e-02 2.394520e-01)
2.64017e-05   	(-9.730627e+01 7.367315e+01 -9.613092e+03)	(-9.730919e+01 7.362981e+01 -9.613392e+03)	(2.920113e-03 4.334160e-02 2.993596e-01)
4.36833e-05   	(-1.301195e+01 1.392039e+01 -1.283905e+03)	(-1.301512e+01 1.387687e+01 -1.284229e+03)	(3.169239e-03 4.352952e-02 3.240055e-01)
6.44211e-05   	(-7.216671e+00 3.990203e+00 -7.149536e+02)	(-7.219960e+00 3.946427e+00 -7.152895e+02)	(3.289044e-03 4.377628e-02 3.358619e-01)
8.93055e-05   	(-5.087970e+00 1.570549e+00 -5.056250e+02)	(-5.091338e+00 1.526462e+00 -5.059686e+02)	(3.368061e-03 4.408672e-02 3.436892e-01)
0.000119165   	(-4.668501e+00 1.167872e+00 -4.642030e+02)	(-4.671927e+00 1.123413e+00 -4.645525e+02)	(3.426376e-03 4.445904e-02 3.494792e-01)
0.00015499    	(-4.825372e+00 1.395518e+00 -4.794238e+02)	(-4.828846e+00 1.350599e+00 -4.797780e+02)	(3.473878e-03 4.491955e-02 3.542146e-01)
0.000197972   	(-5.164138e+00 1.638589e+00 -5.127170e+02)	(-5.167651e+00 1.593087e+00 -5.130751e+02)	(3.513283e-03 4.550203e-02 3.581663e-01)
0.000248149   	(-5.738449e+00 1.828927e+00 -5.694333e+02)	(-5.741989e+00 1.782735e+00 -5.697943e+02)	(3.540440e-03 4.619246e-02 3.609176e-01)
0.00030551    	(-6.989114e+00 1.970833e+00 -6.931364e+02)	(-6.992668e+00 1.923850e+00 -6.934987e+02)	(3.553555e-03 4.698237e-02 3.622891e-01)
0.000370037   	(-7.885214e+00 2.045895e+00 -7.818881e+02)	(-7.888769e+00 1.998046e+00 -7.822506e+02)	(3.555257e-03 4.784893e-02 3.625420e-01)
0.000441559   	(-7.857477e+00 2.039308e+00 -7.793099e+02)	(-7.861033e+00 1.990533e+00 -7.796726e+02)	(3.556121e-03 4.877462e-02 3.627342e-01)
0.000512978   	(-7.844655e+00 1.996843e+00 -7.782195e+02)	(-7.848219e+00 1.947190e+00 -7.785831e+02)	(3.564180e-03 4.965284e-02 3.636551e-01)
0.000584193   	(-7.796823e+00 1.930733e+00 -7.736681e+02)	(-7.800408e+00 1.880258e+00 -7.740340e+02)	(3.585267e-03 5.047443e-02 3.658856e-01)
0.000655204   	(-7.702587e+00 1.864487e+00 -7.644856e+02)	(-7.706219e+00 1.813240e+00 -7.648563e+02)	(3.632053e-03 5.124736e-02 3.706875e-01)
0.000723671   	(-7.580715e+00 1.803762e+00 -7.525540e+02)	(-7.584421e+00 1.751819e+00 -7.529322e+02)	(3.706017e-03 5.194305e-02 3.781979e-01)
0.000789591   	(-7.521556e+00 1.751381e+00 -7.467981e+02)	(-7.525362e+00 1.698781e+00 -7.471864e+02)	(3.806384e-03 5.259924e-02 3.883413e-01)
0.000853392   	(-7.420167e+00 1.696964e+00 -7.368736e+02)	(-7.424093e+00 1.643755e+00 -7.372739e+02)	(3.925579e-03 5.320897e-02 4.003588e-01)
0.000915282   	(-7.443669e+00 1.654028e+00 -7.392672e+02)	(-7.447727e+00 1.600251e+00 -7.396809e+02)	(4.058390e-03 5.377698e-02 4.137301e-01)
0.000975773   	(-7.443782e+00 1.606546e+00 -7.393661e+02)	(-7.447986e+00 1.552234e+00 -7.397945e+02)	(4.203960e-03 5.431195e-02 4.283686e-01)
0.00103489    	(-7.396914e+00 1.544691e+00 -7.348537e+02)	(-7.401275e+00 1.489872e+00 -7.352979e+02)	(4.361798e-03 5.481956e-02 4.442233e-01)
0.00109304    	(-7.326477e+00 1.470430e+00 -7.280355e+02)	(-7.331009e+00 1.415121e+00 -7.284969e+02)	(4.532276e-03 5.530897e-02 4.613313e-01)
0.00115031    	(-7.230347e+00 1.377108e+00 -7.187059e+02)	(-7.235063e+00 1.321321e+00 -7.191856e+02)	(4.715784e-03 5.578723e-02 4.797298e-01)
0.00120699    	(-7.133834e+00 1.266847e+00 -7.093688e+02)	(-7.138749e+00 1.210584e+00 -7.098685e+02)	(4.914887e-03 5.626321e-02 4.996728e-01)
0.00126309    	(-7.009536e+00 1.139561e+00 -6.973129e+02)	(-7.014673e+00 1.082815e+00 -6.978348e+02)	(5.136303e-03 5.674603e-02 5.218232e-01)
0.00131887    	(-6.878552e+00 9.964061e-01 -6.846161e+02)	(-6.883950e+00 9.391524e-01 -6.851640e+02)	(5.397391e-03 5.725376e-02 5.478984e-01)
0.00137437    	(-6.649535e+00 8.297957e-01 -6.622500e+02)	(-6.655252e+00 7.719848e-01 -6.628297e+02)	(5.716850e-03 5.781090e-02 5.797499e-01)
0.00142972    	(-6.235501e+00 6.735614e-01 -6.214860e+02)	(-6.241580e+00 6.151333e-01 -6.221018e+02)	(6.079004e-03 5.842810e-02 6.158317e-01)
0.001485      	(-5.794131e+00 5.343872e-01 -5.779194e+02)	(-5.800577e+00 4.752898e-01 -5.785718e+02)	(6.445656e-03 5.909743e-02 6.523679e-01)
0.00154029    	(-5.431037e+00 3.817348e-01 -5.421210e+02)	(-5.437818e+00 3.219401e-01 -5.428068e+02)	(6.780608e-03 5.979464e-02 6.857740e-01)
0.00159566    	(-5.045161e+00 1.694061e-01 -5.041913e+02)	(-5.052256e+00 1.088956e-01 -5.049085e+02)	(7.095244e-03 6.051049e-02 7.171740e-01)
0.00165116    	(-4.461442e+00 -1.659657e-01 -4.468683e+02)	(-4.468838e+00 -2.272026e-01 -4.476155e+02)	(7.395713e-03 6.123693e-02 7.471751e-01)
0.00170689    	(-3.499682e+00 -7.368967e-01 -3.524198e+02)	(-3.507353e+00 -7.988574e-01 -3.531945e+02)	(7.671583e-03 6.196077e-02 7.747427e-01)
0.00176286    	(-1.545036e+00 -1.799016e+00 -1.602599e+02)	(-1.552934e+00 -1.861686e+00 -1.610573e+02)	(7.898108e-03 6.266955e-02 7.974247e-01)
0.00181916    	(1.124332e+00 -3.130887e+00 1.025066e+02)	(1.116280e+00 -3.194220e+00 1.016938e+02)	(8.051138e-03 6.333308e-02 8.128263e-01)
0.00187588    	(7.679544e-01 -2.616486e+00 6.828096e+01)	(7.597729e-01 -2.680479e+00 6.745498e+01)	(8.181492e-03 6.399361e-02 8.259774e-01)
0.00193279    	(-2.025726e+00 -9.907628e-01 -2.059512e+02)	(-2.034053e+00 -1.055427e+00 -2.067918e+02)	(8.327163e-03 6.466437e-02 8.406341e-01)
0.00198941    	(-3.659561e+00 -1.148063e-01 -3.664798e+02)	(-3.668039e+00 -1.801160e-01 -3.673356e+02)	(8.477886e-03 6.530971e-02 8.557790e-01)
0.00204578    	(-4.255234e+00 5.833155e-02 -4.252460e+02)	(-4.263854e+00 -7.597754e-03 -4.261161e+02)	(8.620281e-03 6.592930e-02 8.700909e-01)
0.00210191    	(-4.419149e+00 1.726442e-01 -4.413277e+02)	(-4.427901e+00 1.061158e-01 -4.422110e+02)	(8.752554e-03 6.652835e-02 8.833943e-01)
0.00215804    	(-4.651938e+00 2.569912e-01 -4.642611e+02)	(-4.660815e+00 1.898821e-01 -4.651571e+02)	(8.877391e-03 6.710902e-02 8.959571e-01)
0.00221399    	(-4.777471e+00 3.204748e-01 -4.766228e+02)	(-4.786466e+00 2.528012e-01 -4.775306e+02)	(8.994952e-03 6.767358e-02 9.077956e-01)
0.00226993    	(-4.885011e+00 3.702262e-01 -4.872107e+02)	(-4.894117e+00 3.020060e-01 -4.881297e+02)	(9.105914e-03 6.822020e-02 9.189777e-01)
0.00232584    	(-4.974863e+00 4.040298e-01 -4.960713e+02)	(-4.984076e+00 3.352764e-01 -4.970010e+02)	(9.212412e-03 6.875345e-02 9.297157e-01)
0.00238175    	(-5.050059e+00 4.390569e-01 -5.034802e+02)	(-5.059373e+00 3.697875e-01 -5.044202e+02)	(9.314076e-03 6.926945e-02 9.399731e-01)
0.00243769    	(-5.119270e+00 4.671167e-01 -5.103064e+02)	(-5.128680e+00 3.973509e-01 -5.112561e+02)	(9.410801e-03 6.976589e-02 9.497398e-01)
0.00249363    	(-5.189304e+00 4.935409e-01 -5.172193e+02)	(-5.198809e+00 4.232885e-01 -5.181786e+02)	(9.505473e-03 7.025244e-02 9.593024e-01)
0.00254967    	(-5.257283e+00 5.207239e-01 -5.239281e+02)	(-5.266879e+00 4.499977e-01 -5.248966e+02)	(9.596194e-03 7.072620e-02 9.684728e-01)
0.00260577    	(-5.330889e+00 5.512228e-01 -5.311935e+02)	(-5.340572e+00 4.800404e-01 -5.321707e+02)	(9.682966e-03 7.118244e-02 9.772512e-01)
0.00266187    	(-5.420948e+00 5.836538e-01 -5.400831e+02)	(-5.430714e+00 5.120346e-01 -5.410688e+02)	(9.766623e-03 7.161916e-02 9.857200e-01)
0.00271814    	(-5.502531e+00 6.130013e-01 -5.481380e+02)	(-5.512379e+00 5.409644e-01 -5.491319e+02)	(9.848063e-03 7.203687e-02 9.939689e-01)
0.00277437    	(-5.569322e+00 6.399465e-01 -5.547384e+02)	(-5.579250e+00 5.675110e-01 -5.557405e+02)	(9.928469e-03 7.243555e-02 1.002115e+00)
0.00283067    	(-5.644443e+00 6.642389e-01 -5.621596e+02)	(-5.654451e+00 5.914217e-01 -5.631698e+02)	(1.000834e-02 7.281720e-02 1.010209e+00)
0.00288716    	(-5.706321e+00 6.869793e-01 -5.682737e+02)	(-5.716410e+00 6.137938e-01 -5.692920e+02)	(1.008828e-02 7.318544e-02 1.018309e+00)
0.00294362    	(-5.770081e+00 7.066930e-01 -5.745741e+02)	(-5.780248e+00 6.331558e-01 -5.756005e+02)	(1.016760e-02 7.353726e-02 1.026347e+00)
0.00300015    	(-5.814532e+00 7.193155e-01 -5.789734e+02)	(-5.824780e+00 6.454395e-01 -5.800078e+02)	(1.024713e-02 7.387601e-02 1.034407e+00)
0.00305684    	(-5.846784e+00 7.261566e-01 -5.821676e+02)	(-5.857110e+00 6.519502e-01 -5.832101e+02)	(1.032670e-02 7.420640e-02 1.042471e+00)
0.0031136     	(-5.876705e+00 7.349157e-01 -5.851298e+02)	(-5.887112e+00 6.603886e-01 -5.861805e+02)	(1.040702e-02 7.452706e-02 1.050609e+00)
0.00317029    	(-5.900803e+00 7.391510e-01 -5.875188e+02)	(-5.911291e+00 6.643140e-01 -5.885775e+02)	(1.048734e-02 7.483699e-02 1.058745e+00)
0.00322692    	(-5.924704e+00 7.456425e-01 -5.898853e+02)	(-5.935272e+00 6.705057e-01 -5.909522e+02)	(1.056764e-02 7.513676e-02 1.066878e+00)
0.00328348    	(-5.928506e+00 7.410199e-01 -5.902699e+02)	(-5.939160e+00 6.655730e-01 -5.913455e+02)	(1.065381e-02 7.544690e-02 1.075595e+00)
0.00334       	(-5.927816e+00 7.369552e-01 -5.902143e+02)	(-5.938556e+00 6.612025e-01 -5.912986e+02)	(1.073939e-02 7.575273e-02 1.084252e+00)
0.00339646    	(-5.928887e+00 7.317324e-01 -5.903319e+02)	(-5.939706e+00 6.556995e-01 -5.914243e+02)	(1.081940e-02 7.603290e-02 1.092353e+00)
0.00345286    	(-5.930454e+00 7.300360e-01 -5.904972e+02)	(-5.941353e+00 6.537281e-01 -5.915976e+02)	(1.089860e-02 7.630788e-02 1.100371e+00)
0.00350922    	(-5.932648e+00 7.265092e-01 -5.907220e+02)	(-5.943624e+00 6.499317e-01 -5.918303e+02)	(1.097600e-02 7.657747e-02 1.108211e+00)
0.00356555    	(-5.917003e+00 7.129358e-01 -5.891947e+02)	(-5.928055e+00 6.360881e-01 -5.903106e+02)	(1.105221e-02 7.684764e-02 1.115931e+00)
0.00362181    	(-5.911799e+00 7.045638e-01 -5.886946e+02)	(-5.922925e+00 6.274500e-01 -5.898180e+02)	(1.112554e-02 7.711379e-02 1.123361e+00)
0.00367801    	(-5.925175e+00 7.059207e-01 -5.900250e+02)	(-5.936371e+00 6.285454e-01 -5.911556e+02)	(1.119649e-02 7.737523e-02 1.130555e+00)
0.00373417    	(-5.946977e+00 7.082202e-01 -5.921880e+02)	(-5.958242e+00 6.305868e-01 -5.933254e+02)	(1.126435e-02 7.763338e-02 1.137441e+00)
0.00379027    	(-5.933563e+00 6.946568e-01 -5.908823e+02)	(-5.944897e+00 6.167519e-01 -5.920268e+02)	(1.133444e-02 7.790492e-02 1.144547e+00)
0.00384634    	(-5.966668e+00 7.037333e-01 -5.941558e+02)	(-5.978062e+00 6.255814e-01 -5.953065e+02)	(1.139436e-02 7.815186e-02 1.150640e+00)
0.00390237    	(-5.996607e+00 7.081632e-01 -5.971246e+02)	(-6.008057e+00 6.297720e-01 -5.982809e+02)	(1.145008e-02 7.839119e-02 1.156315e+00)
0.00395831    	(-6.012854e+00 7.108740e-01 -5.987370e+02)	(-6.024362e+00 6.322351e-01 -5.998992e+02)	(1.150775e-02 7.863894e-02 1.162184e+00)
0.00401414    	(-6.030941e+00 7.092247e-01 -6.005396e+02)	(-6.042508e+00 6.303318e-01 -6.017079e+02)	(1.156765e-02 7.889284e-02 1.168273e+00)
0.0040696     	(-6.060320e+00 7.180975e-01 -6.034441e+02)	(-6.071932e+00 6.389855e-01 -6.046169e+02)	(1.161162e-02 7.911197e-02 1.172774e+00)
0.00412473    	(-6.077355e+00 7.152919e-01 -6.051438e+02)	(-6.089008e+00 6.359622e-01 -6.063209e+02)	(1.165336e-02 7.932961e-02 1.177052e+00)
0.00417961    	(-6.098550e+00 7.192390e-01 -6.072437e+02)	(-6.110243e+00 6.396971e-01 -6.084248e+02)	(1.169246e-02 7.954199e-02 1.181066e+00)
0.00423427    	(-6.112717e+00 7.170858e-01 -6.086585e+02)	(-6.124445e+00 6.373388e-01 -6.098432e+02)	(1.172772e-02 7.974693e-02 1.184696e+00)
0.00428874    	(-6.138470e+00 7.209801e-01 -6.112120e+02)	(-6.150230e+00 6.410340e-01 -6.124000e+02)	(1.176012e-02 7.994613e-02 1.188039e+00)
0.00434306    	(-6.161377e+00 7.229909e-01 -6.134875e+02)	(-6.173187e+00 6.427858e-01 -6.146807e+02)	(1.181085e-02 8.020512e-02 1.193202e+00)
0.00439723    	(-6.182300e+00 7.254359e-01 -6.155615e+02)	(-6.194141e+00 6.450351e-01 -6.167577e+02)	(1.184031e-02 8.040081e-02 1.196250e+00)
0.0044513     	(-6.194322e+00 7.216450e-01 -6.167656e+02)	(-6.206191e+00 6.410497e-01 -6.179649e+02)	(1.186945e-02 8.059529e-02 1.199265e+00)
0.00450528    	(-6.231510e+00 7.342480e-01 -6.204384e+02)	(-6.243408e+00 6.534611e-01 -6.216405e+02)	(1.189730e-02 8.078696e-02 1.202150e+00)
0.00455918    	(-6.245338e+00 7.313314e-01 -6.218195e+02)	(-6.257261e+00 6.503605e-01 -6.230242e+02)	(1.192268e-02 8.097091e-02 1.204789e+00)
0.00461301    	(-6.263289e+00 7.358265e-01 -6.235957e+02)	(-6.275236e+00 6.546769e-01 -6.248030e+02)	(1.194721e-02 8.114963e-02 1.207342e+00)
0.00466678    	(-6.283164e+00 7.350411e-01 -6.255726e+02)	(-6.295140e+00 6.537106e-01 -6.267828e+02)	(1.197555e-02 8.133053e-02 1.210272e+00)
0.00472051    	(-6.317165e+00 7.484311e-01 -6.289260e+02)	(-6.329171e+00 6.668951e-01 -6.301394e+02)	(1.200653e-02 8.153604e-02 1.213461e+00)
0.00477422    	(-6.333077e+00 7.451166e-01 -6.305149e+02)	(-6.345110e+00 6.634107e-01 -6.317311e+02)	(1.203263e-02 8.170593e-02 1.216166e+00)
0.00482793    	(-6.356797e+00 7.528902e-01 -6.328562e+02)	(-6.368856e+00 6.710128e-01 -6.340752e+02)	(1.205964e-02 8.187736e-02 1.218958e+00)
0.00488164    	(-6.380584e+00 7.525515e-01 -6.352190e+02)	(-6.392659e+00 6.705236e-01 -6.364396e+02)	(1.207524e-02 8.202784e-02 1.220615e+00)
0.00493538    	(-6.415399e+00 7.654421e-01 -6.386541e+02)	(-6.427489e+00 6.832684e-01 -6.398762e+02)	(1.208993e-02 8.217374e-02 1.222179e+00)
0.00498915    	(-6.434264e+00 7.623406e-01 -6.405349e+02)	(-6.446367e+00 6.800281e-01 -6.417585e+02)	(1.210331e-02 8.231255e-02 1.223611e+00)
0.00504298    	(-6.456335e+00 7.712011e-01 -6.427116e+02)	(-6.468451e+00 6.887582e-01 -6.439366e+02)	(1.211579e-02 8.244285e-02 1.224952e+00)
0.0050969     	(-6.478361e+00 7.697296e-01 -6.449023e+02)	(-6.490497e+00 6.871502e-01 -6.461294e+02)	(1.213585e-02 8.257945e-02 1.227046e+00)
0.00515092    	(-6.503333e+00 7.796570e-01 -6.473652e+02)	(-6.515479e+00 6.969513e-01 -6.485934e+02)	(1.214626e-02 8.270568e-02 1.228178e+00)
0.00520505    	(-6.532331e+00 7.799916e-01 -6.502447e+02)	(-6.544477e+00 6.971642e-01 -6.514729e+02)	(1.214590e-02 8.282740e-02 1.228241e+00)
0.00525932    	(-6.557155e+00 7.861709e-01 -6.527002e+02)	(-6.569310e+00 7.032386e-01 -6.539294e+02)	(1.215500e-02 8.293233e-02 1.229240e+00)
0.00531373    	(-6.568757e+00 7.834994e-01 -6.538577e+02)	(-6.580920e+00 7.004622e-01 -6.550878e+02)	(1.216311e-02 8.303714e-02 1.230139e+00)
0.00536834    	(-6.595386e+00 7.893003e-01 -6.564935e+02)	(-6.607561e+00 7.061616e-01 -6.577250e+02)	(1.217553e-02 8.313869e-02 1.231466e+00)
0.00542313    	(-6.629251e+00 7.959502e-01 -6.598454e+02)	(-6.641431e+00 7.127237e-01 -6.610774e+02)	(1.218049e-02 8.322652e-02 1.232048e+00)
0.00547812    	(-6.651515e+00 7.983452e-01 -6.620532e+02)	(-6.663711e+00 7.150324e-01 -6.632869e+02)	(1.219625e-02 8.331275e-02 1.233704e+00)
0.00553333    	(-6.677389e+00 8.029888e-01 -6.646161e+02)	(-6.689587e+00 7.196030e-01 -6.658500e+02)	(1.219757e-02 8.338573e-02 1.233922e+00)
0.00558877    	(-6.698161e+00 8.061906e-01 -6.666746e+02)	(-6.710359e+00 7.227410e-01 -6.679085e+02)	(1.219720e-02 8.344963e-02 1.233969e+00)
0.00564418    	(-6.739408e+00 8.162555e-01 -6.707541e+02)	(-6.751599e+00 7.327482e-01 -6.719875e+02)	(1.219116e-02 8.350722e-02 1.233452e+00)
0.00569939    	(-6.778163e+00 8.276767e-01 -6.745829e+02)	(-6.790346e+00 7.441237e-01 -6.758156e+02)	(1.218313e-02 8.355300e-02 1.232735e+00)
0.00575434    	(-6.809943e+00 8.332497e-01 -6.777292e+02)	(-6.822111e+00 7.496546e-01 -6.789605e+02)	(1.216759e-02 8.359513e-02 1.231272e+00)
0.00580904    	(-6.841464e+00 8.413982e-01 -6.808444e+02)	(-6.853625e+00 7.577665e-01 -6.820751e+02)	(1.216090e-02 8.363168e-02 1.230684e+00)
0.00586352    	(-6.894749e+00 8.565744e-01 -6.861068e+02)	(-6.906901e+00 7.729167e-01 -6.873366e+02)	(1.215183e-02 8.365766e-02 1.229857e+00)
0.00591781    	(-6.937251e+00 8.682596e-01 -6.903041e+02)	(-6.949391e+00 7.845875e-01 -6.915329e+02)	(1.214036e-02 8.367210e-02 1.228791e+00)
0.00597191    	(-6.975685e+00 8.760068e-01 -6.941049e+02)	(-6.987812e+00 7.923290e-01 -6.953324e+02)	(1.212720e-02 8.367781e-02 1.227555e+00)
0.00602582    	(-7.013588e+00 8.858009e-01 -6.978493e+02)	(-7.025706e+00 8.021156e-01 -6.990760e+02)	(1.211800e-02 8.368529e-02 1.226712e+00)
0.00607958    	(-7.065428e+00 9.010826e-01 -7.029668e+02)	(-7.077527e+00 8.174037e-01 -7.041917e+02)	(1.209957e-02 8.367884e-02 1.224949e+00)
0.00613319    	(-7.107700e+00 9.108928e-01 -7.071447e+02)	(-7.119778e+00 8.272322e-01 -7.083675e+02)	(1.207803e-02 8.366064e-02 1.222876e+00)
0.00618668    	(-7.142959e+00 9.177882e-01 -7.106299e+02)	(-7.155011e+00 8.341518e-01 -7.118502e+02)	(1.205172e-02 8.363637e-02 1.220328e+00)
0.00624004    	(-7.178416e+00 9.265419e-01 -7.141324e+02)	(-7.190447e+00 8.429303e-01 -7.153508e+02)	(1.203094e-02 8.361166e-02 1.218329e+00)
0.00629328    	(-7.235753e+00 9.438948e-01 -7.197893e+02)	(-7.247760e+00 8.603160e-01 -7.210053e+02)	(1.200707e-02 8.357874e-02 1.216022e+00)
0.00634643    	(-7.266045e+00 9.497638e-01 -7.227852e+02)	(-7.278027e+00 8.662303e-01 -7.239988e+02)	(1.198228e-02 8.353350e-02 1.213622e+00)
0.0063995     	(-7.302547e+00 9.574745e-01 -7.263902e+02)	(-7.314495e+00 8.739946e-01 -7.276005e+02)	(1.194839e-02 8.347996e-02 1.210314e+00)
0.0064525     	(-7.339489e+00 9.666726e-01 -7.300375e+02)	(-7.351411e+00 8.832447e-01 -7.312452e+02)	(1.192186e-02 8.342794e-02 1.207740e+00)
0.00650544    	(-7.394527e+00 9.831395e-01 -7.354676e+02)	(-7.406412e+00 8.997778e-01 -7.366717e+02)	(1.188485e-02 8.336171e-02 1.204119e+00)
0.00655829    	(-7.430863e+00 9.885525e-01 -7.390598e+02)	(-7.442709e+00 9.052696e-01 -7.402601e+02)	(1.184607e-02 8.328283e-02 1.200321e+00)
0.00661108    	(-7.461876e+00 9.936505e-01 -7.421249e+02)	(-7.473682e+00 9.104499e-01 -7.433213e+02)	(1.180600e-02 8.320055e-02 1.196393e+00)
0.00666384    	(-7.506930e+00 1.005936e+00 -7.465685e+02)	(-7.518694e+00 9.228239e-01 -7.477608e+02)	(1.176421e-02 8.311247e-02 1.192295e+00)
0.00671655    	(-7.564464e+00 1.020606e+00 -7.522468e+02)	(-7.576192e+00 9.375885e-01 -7.534356e+02)	(1.172775e-02 8.301727e-02 1.188725e+00)
0.00676922    	(-7.592455e+00 1.024578e+00 -7.550126e+02)	(-7.604135e+00 9.416706e-01 -7.561967e+02)	(1.168023e-02 8.290734e-02 1.184054e+00)
0.00682186    	(-7.624655e+00 1.027083e+00 -7.581989e+02)	(-7.636287e+00 9.442866e-01 -7.593782e+02)	(1.163194e-02 8.279620e-02 1.179305e+00)
0.00687448    	(-7.672174e+00 1.041446e+00 -7.628833e+02)	(-7.683756e+00 9.587657e-01 -7.640577e+02)	(1.158217e-02 8.268071e-02 1.174409e+00)
0.00692706    	(-7.725695e+00 1.055504e+00 -7.681626e+02)	(-7.737227e+00 9.729506e-01 -7.693321e+02)	(1.153228e-02 8.255334e-02 1.169499e+00)
0.00697961    	(-7.762929e+00 1.061676e+00 -7.718415e+02)	(-7.774409e+00 9.792577e-01 -7.730059e+02)	(1.148030e-02 8.241871e-02 1.164381e+00)
0.00703214    	(-7.787059e+00 1.062718e+00 -7.742300e+02)	(-7.798489e+00 9.804334e-01 -7.753894e+02)	(1.142987e-02 8.228462e-02 1.159416e+00)
0.00708463    	(-7.844755e+00 1.080496e+00 -7.799156e+02)	(-7.856141e+00 9.983458e-01 -7.810707e+02)	(1.138635e-02 8.215011e-02 1.155137e+00)
0.0071371     	(-7.892083e+00 1.092958e+00 -7.845826e+02)	(-7.903418e+00 1.010953e+00 -7.857326e+02)	(1.133490e-02 8.200598e-02 1.150068e+00)
0.00718953    	(-7.923831e+00 1.096549e+00 -7.877210e+02)	(-7.935114e+00 1.014694e+00 -7.888659e+02)	(1.128286e-02 8.185457e-02 1.144940e+00)
0.00724194    	(-7.959151e+00 1.101609e+00 -7.912100e+02)	(-7.970389e+00 1.019896e+00 -7.923505e+02)	(1.123755e-02 8.171269e-02 1.140481e+00)
0.00729431    	(-8.007353e+00 1.116382e+00 -7.959598e+02)	(-8.018540e+00 1.034822e+00 -7.970953e+02)	(1.118682e-02 8.155982e-02 1.135480e+00)
0.00734669    	(-8.059416e+00 1.130896e+00 -8.010929e+02)	(-8.070551e+00 1.049485e+00 -8.022233e+02)	(1.113525e-02 8.141079e-02 1.130398e+00)
0.00739907    	(-8.087244e+00 1.131691e+00 -8.038486e+02)	(-8.098326e+00 1.050432e+00 -8.049737e+02)	(1.108159e-02 8.125862e-02 1.125107e+00)
0.00745141    	(-8.126198e+00 1.138634e+00 -8.076958e+02)	(-8.137229e+00 1.057530e+00 -8.088159e+02)	(1.103100e-02 8.110452e-02 1.120117e+00)
0.00750376    	(-8.176877e+00 1.152025e+00 -8.126932e+02)	(-8.187874e+00 1.071072e+00 -8.138100e+02)	(1.099656e-02 8.095376e-02 1.116737e+00)
0.00755611    	(-8.231388e+00 1.167903e+00 -8.180655e+02)	(-8.242332e+00 1.087103e+00 -8.191770e+02)	(1.094441e-02 8.080014e-02 1.111592e+00)
0.00760845    	(-8.264762e+00 1.170999e+00 -8.213669e+02)	(-8.275655e+00 1.090356e+00 -8.224734e+02)	(1.089289e-02 8.064286e-02 1.106507e+00)
0.0076608     	(-8.304768e+00 1.176448e+00 -8.253235e+02)	(-8.315612e+00 1.095958e+00 -8.264251e+02)	(1.084369e-02 8.048950e-02 1.101651e+00)
0.00771314    	(-8.347771e+00 1.187554e+00 -8.295657e+02)	(-8.358566e+00 1.107214e+00 -8.306626e+02)	(1.079524e-02 8.033976e-02 1.096870e+00)
0.00776549    	(-8.403898e+00 1.204330e+00 -8.350976e+02)	(-8.414645e+00 1.124139e+00 -8.361897e+02)	(1.074639e-02 8.019119e-02 1.092049e+00)
0.00781787    	(-8.447776e+00 1.215186e+00 -8.394280e+02)	(-8.458475e+00 1.135145e+00 -8.405154e+02)	(1.069897e-02 8.004127e-02 1.087369e+00)
0.00787024    	(-8.480715e+00 1.217002e+00 -8.426926e+02)	(-8.491374e+00 1.137103e+00 -8.437760e+02)	(1.065930e-02 7.989947e-02 1.083459e+00)
0.00792262    	(-8.517929e+00 1.228624e+00 -8.463627e+02)	(-8.528553e+00 1.148865e+00 -8.474427e+02)	(1.062409e-02 7.975852e-02 1.079995e+00)
0.00797503    	(-8.568257e+00 1.243930e+00 -8.513243e+02)	(-8.578850e+00 1.164307e+00 -8.524012e+02)	(1.059283e-02 7.962315e-02 1.076923e+00)
0.00802743    	(-8.601955e+00 1.255797e+00 -8.546473e+02)	(-8.612505e+00 1.176313e+00 -8.557200e+02)	(1.054954e-02 7.948395e-02 1.072651e+00)
0.00807987    	(-8.629962e+00 1.255274e+00 -8.574280e+02)	(-8.640477e+00 1.175926e+00 -8.584973e+02)	(1.051564e-02 7.934849e-02 1.069314e+00)
0.0081323     	(-8.658746e+00 1.263401e+00 -8.602718e+02)	(-8.669218e+00 1.184185e+00 -8.613368e+02)	(1.047172e-02 7.921618e-02 1.064979e+00)
0.00818477    	(-8.700624e+00 1.276863e+00 -8.644017e+02)	(-8.711052e+00 1.197777e+00 -8.654624e+02)	(1.042860e-02 7.908610e-02 1.060721e+00)
0.00823727    	(-8.742226e+00 1.292678e+00 -8.685004e+02)	(-8.752621e+00 1.213723e+00 -8.695578e+02)	(1.039506e-02 7.895457e-02 1.057418e+00)
0.00828976    	(-8.769290e+00 1.293359e+00 -8.711889e+02)	(-8.779642e+00 1.214536e+00 -8.722420e+02)	(1.035179e-02 7.882354e-02 1.053145e+00)
0.00834229    	(-8.792454e+00 1.300183e+00 -8.734801e+02)	(-8.802765e+00 1.221487e+00 -8.745292e+02)	(1.031087e-02 7.869583e-02 1.049106e+00)
0.00839484    	(-8.840422e+00 1.316262e+00 -8.782098e+02)	(-8.850692e+00 1.237692e+00 -8.792549e+02)	(1.026986e-02 7.857070e-02 1.045058e+00)
0.00844743    	(-8.879248e+00 1.332175e+00 -8.820355e+02)	(-8.889477e+00 1.253729e+00 -8.830766e+02)	(1.022941e-02 7.844551e-02 1.041064e+00)
0.00850005    	(-8.905888e+00 1.334846e+00 -8.846782e+02)	(-8.916077e+00 1.256527e+00 -8.857152e+02)	(1.018834e-02 7.831883e-02 1.037008e+00)
0.00855269    	(-8.936137e+00 1.344383e+00 -8.876661e+02)	(-8.946293e+00 1.266185e+00 -8.886999e+02)	(1.015573e-02 7.819866e-02 1.033796e+00)
0.0086054     	(-8.967010e+00 1.355380e+00 -8.907134e+02)	(-8.977124e+00 1.277302e+00 -8.917430e+02)	(1.011368e-02 7.807779e-02 1.029643e+00)
0.00865814    	(-9.003938e+00 1.371616e+00 -8.943496e+02)	(-9.014012e+00 1.293659e+00 -8.953753e+02)	(1.007334e-02 7.795717e-02 1.025660e+00)
0.00871094    	(-9.036363e+00 1.374977e+00 -8.975651e+02)	(-9.046395e+00 1.297144e+00 -8.985867e+02)	(1.003229e-02 7.783309e-02 1.021605e+00)
0.0087638     	(-9.057508e+00 1.382259e+00 -8.996543e+02)	(-9.067499e+00 1.304543e+00 -9.006719e+02)	(9.991669e-03 7.771525e-02 1.017594e+00)
0.00881669    	(-9.098123e+00 1.394110e+00 -9.036625e+02)	(-9.108081e+00 1.316499e+00 -9.046768e+02)	(9.958302e-03 7.761145e-02 1.014305e+00)
0.00886964    	(-9.134767e+00 1.409921e+00 -9.072707e+02)	(-9.144683e+00 1.332427e+00 -9.082808e+02)	(9.915964e-03 7.749321e-02 1.010123e+00)
0.00892268    	(-9.160939e+00 1.411081e+00 -9.098694e+02)	(-9.170812e+00 1.333709e+00 -9.108753e+02)	(9.873260e-03 7.737154e-02 1.005903e+00)
0.00897579    	(-9.180667e+00 1.417672e+00 -9.118165e+02)	(-9.190500e+00 1.340418e+00 -9.128183e+02)	(9.832200e-03 7.725352e-02 1.001846e+00)
0.00902896    	(-9.222083e+00 1.429756e+00 -9.159015e+02)	(-9.231874e+00 1.352622e+00 -9.168993e+02)	(9.790673e-03 7.713452e-02 9.977417e-01)
0.00908222    	(-9.266622e+00 1.447163e+00 -9.202859e+02)	(-9.276381e+00 1.370143e+00 -9.212805e+02)	(9.758972e-03 7.701947e-02 9.946176e-01)
0.00913558    	(-9.311864e+00 1.454274e+00 -9.247582e+02)	(-9.321593e+00 1.377376e+00 -9.257498e+02)	(9.728603e-03 7.689827e-02 9.916247e-01)
0.00918902    	(-9.334516e+00 1.460225e+00 -9.269937e+02)	(-9.344203e+00 1.383449e+00 -9.279813e+02)	(9.687396e-03 7.677583e-02 9.875498e-01)
0.00924254    	(-9.386481e+00 1.475063e+00 -9.321136e+02)	(-9.396127e+00 1.398409e+00 -9.330971e+02)	(9.646246e-03 7.665394e-02 9.834799e-01)
0.00929602    	(-9.447111e+00 1.495810e+00 -9.380810e+02)	(-9.456714e+00 1.419279e+00 -9.390603e+02)	(9.603154e-03 7.653061e-02 9.792167e-01)
0.00934947    	(-9.501278e+00 1.506338e+00 -9.434272e+02)	(-9.510847e+00 1.429937e+00 -9.444030e+02)	(9.568421e-03 7.640166e-02 9.757853e-01)
0.00940289    	(-9.539311e+00 1.514039e+00 -9.471804e+02)	(-9.548838e+00 1.437762e+00 -9.481522e+02)	(9.527547e-03 7.627754e-02 9.717383e-01)
0.00945627    	(-9.594407e+00 1.529293e+00 -9.526087e+02)	(-9.603894e+00 1.453139e+00 -9.535765e+02)	(9.487411e-03 7.615432e-02 9.677633e-01)
0.00950963    	(-9.650839e+00 1.545717e+00 -9.581682e+02)	(-9.660287e+00 1.469687e+00 -9.591320e+02)	(9.447313e-03 7.603066e-02 9.637909e-01)
0.00956295    	(-9.718819e+00 1.565384e+00 -9.648610e+02)	(-9.728227e+00 1.489482e+00 -9.658208e+02)	(9.407460e-03 7.590218e-02 9.598406e-01)
0.00961624    	(-9.762445e+00 1.571234e+00 -9.691722e+02)	(-9.771823e+00 1.495452e+00 -9.701291e+02)	(9.377467e-03 7.578272e-02 9.568697e-01)
0.00966954    	(-9.815107e+00 1.586863e+00 -9.743565e+02)	(-9.824448e+00 1.511207e+00 -9.753098e+02)	(9.341695e-03 7.565585e-02 9.533208e-01)
0.0097228     	(-9.879441e+00 1.602923e+00 -9.806960e+02)	(-9.888746e+00 1.527392e+00 -9.816457e+02)	(9.305196e-03 7.553131e-02 9.496991e-01)
0.00977606    	(-9.943924e+00 1.626306e+00 -9.870350e+02)	(-9.953203e+00 1.550898e+00 -9.879821e+02)	(9.278760e-03 7.540746e-02 9.470781e-01)
0.00982929    	(-9.993408e+00 1.633470e+00 -9.919212e+02)	(-1.000265e+01 1.558193e+00 -9.928648e+02)	(9.243367e-03 7.527710e-02 9.435599e-01)
0.00988249    	(-1.003973e+01 1.644459e+00 -9.964865e+02)	(-1.004894e+01 1.569308e+00 -9.974268e+02)	(9.209644e-03 7.515125e-02 9.402062e-01)
0.00993565    	(-1.009857e+01 1.660569e+00 -1.002282e+03)	(-1.010774e+01 1.585543e+00 -1.003219e+03)	(9.175678e-03 7.502553e-02 9.368279e-01)
0.00998879    	(-1.016763e+01 1.684291e+00 -1.009075e+03)	(-1.017677e+01 1.609393e+00 -1.010009e+03)	(9.144002e-03 7.489842e-02 9.336752e-01)
0.0100419     	(-1.022309e+01 1.700539e+00 -1.014535e+03)	(-1.023221e+01 1.625771e+00 -1.015466e+03)	(9.112836e-03 7.476788e-02 9.305710e-01)
0.0100949     	(-1.026702e+01 1.703675e+00 -1.018880e+03)	(-1.027611e+01 1.629034e+00 -1.019808e+03)	(9.082946e-03 7.464032e-02 9.275927e-01)
0.0101479     	(-1.032650e+01 1.723873e+00 -1.024728e+03)	(-1.033555e+01 1.649358e+00 -1.025652e+03)	(9.052704e-03 7.451447e-02 9.245791e-01)
0.0102009     	(-1.040113e+01 1.743602e+00 -1.032077e+03)	(-1.041015e+01 1.669213e+00 -1.032998e+03)	(9.024145e-03 7.438902e-02 9.217304e-01)
0.0102538     	(-1.046175e+01 1.768661e+00 -1.038027e+03)	(-1.047075e+01 1.694400e+00 -1.038947e+03)	(9.004932e-03 7.426168e-02 9.198105e-01)
0.0103068     	(-1.050249e+01 1.772074e+00 -1.042057e+03)	(-1.051147e+01 1.697943e+00 -1.042974e+03)	(8.978134e-03 7.413121e-02 9.171329e-01)
0.0103596     	(-1.054527e+01 1.786122e+00 -1.046267e+03)	(-1.055423e+01 1.712115e+00 -1.047183e+03)	(8.963205e-03 7.400727e-02 9.156371e-01)
0.0104125     	(-1.059178e+01 1.798493e+00 -1.050849e+03)	(-1.060072e+01 1.724608e+00 -1.051763e+03)	(8.938715e-03 7.388577e-02 9.131861e-01)
0.0104653     	(-1.064110e+01 1.818822e+00 -1.055694e+03)	(-1.065002e+01 1.745052e+00 -1.056605e+03)	(8.921540e-03 7.377045e-02 9.114621e-01)
0.0105181     	(-1.067774e+01 1.827721e+00 -1.059307e+03)	(-1.068664e+01 1.754076e+00 -1.060216e+03)	(8.896180e-03 7.364484e-02 9.089216e-01)
0.0105709     	(-1.069417e+01 1.828094e+00 -1.060937e+03)	(-1.070304e+01 1.754568e+00 -1.061844e+03)	(8.872814e-03 7.352592e-02 9.065776e-01)
0.0106236     	(-1.072268e+01 1.839010e+00 -1.063743e+03)	(-1.073154e+01 1.765598e+00 -1.064647e+03)	(8.851876e-03 7.341176e-02 9.044724e-01)
0.0106763     	(-1.075516e+01 1.848205e+00 -1.066942e+03)	(-1.076399e+01 1.774905e+00 -1.067845e+03)	(8.831972e-03 7.329914e-02 9.024678e-01)
0.0107289     	(-1.078523e+01 1.862692e+00 -1.069896e+03)	(-1.079405e+01 1.789505e+00 -1.070796e+03)	(8.811921e-03 7.318648e-02 9.004470e-01)
0.0107815     	(-1.080961e+01 1.865138e+00 -1.072309e+03)	(-1.081840e+01 1.792067e+00 -1.073208e+03)	(8.791923e-03 7.307069e-02 8.984299e-01)
0.0108341     	(-1.077957e+01 1.857072e+00 -1.069369e+03)	(-1.078834e+01 1.784110e+00 -1.070266e+03)	(8.773226e-03 7.296107e-02 8.965434e-01)
0.0108866     	(-1.076642e+01 1.856136e+00 -1.068080e+03)	(-1.077518e+01 1.783284e+00 -1.068975e+03)	(8.755420e-03 7.285224e-02 8.947452e-01)
0.010939      	(-1.075147e+01 1.857079e+00 -1.066611e+03)	(-1.076021e+01 1.784336e+00 -1.067504e+03)	(8.738867e-03 7.274335e-02 8.930716e-01)
0.0109914     	(-1.076559e+01 1.866571e+00 -1.067999e+03)	(-1.077431e+01 1.793941e+00 -1.068890e+03)	(8.723100e-03 7.262998e-02 8.914749e-01)
0.0110439     	(-1.074519e+01 1.854884e+00 -1.066018e+03)	(-1.075390e+01 1.782364e+00 -1.066908e+03)	(8.708910e-03 7.251929e-02 8.900355e-01)
0.0110962     	(-1.069672e+01 1.846826e+00 -1.061255e+03)	(-1.070542e+01 1.774408e+00 -1.062144e+03)	(8.700279e-03 7.241736e-02 8.891518e-01)
0.0111486     	(-1.068526e+01 1.843996e+00 -1.060139e+03)	(-1.069396e+01 1.771684e+00 -1.061027e+03)	(8.692231e-03 7.231265e-02 8.883278e-01)
0.011201      	(-1.069150e+01 1.859921e+00 -1.060736e+03)	(-1.070018e+01 1.787714e+00 -1.061623e+03)	(8.685679e-03 7.220710e-02 8.876517e-01)