# Force       
# CofR        : (5.000000e+00 5.000000e-03 0.000000e+00)
#
# Time        	(total_x total_y total_z)	(pressure_x pressure_y pressure_z)	(viscous_x viscous_y viscous_z)
1.20005e-05   	(3.777507e+04 8.422362e+04 -5.378317e-15)	(3.777424e+04 8.422365e+04 -5.378347e-15)	(8.237379e-01 -2.918826e-02 3.009068e-20)
2.64017e-05   	(1.115760e+03 1.693407e+03 3.192486e-16)	(1.114942e+03 1.693448e+03 3.192312e-16)	(8.175576e-01 -4.122637e-02 1.739019e-20)
4.36833e-05   	(2.215191e+02 2.919098e+02 -7.929114e-17)	(2.207001e+02 2.919561e+02 -7.930424e-17)	(8.189194e-01 -4.633245e-02 1.309581e-20)
6.44211e-05   	(7.448602e+01 1.561749e+02 1.186185e-17)	(7.366465e+01 1.562236e+02 1.185089e-17)	(8.213729e-01 -4.866982e-02 1.095866e-20)
8.93055e-05   	(3.178532e+01 1.162791e+02 2.661071e-17)	(3.096075e+01 1.163292e+02 2.660066e-17)	(8.245660e-01 -5.017453e-02 1.004802e-20)
0.000119165   	(2.675475e+01 1.079923e+02 3.061022e-17)	(2.592626e+01 1.080435e+02 3.060050e-17)	(8.284961e-01 -5.121741e-02 9.719952e-21)
0.00015499    	(3.240770e+01 1.075095e+02 3.360042e-17)	(3.157413e+01 1.075615e+02 3.359068e-17)	(8.335695e-01 -5.199482e-02 9.741464e-21)
0.000197972   	(3.787664e+01 1.108152e+02 4.617546e-17)	(3.703675e+01 1.108677e+02 4.616531e-17)	(8.398917e-01 -5.252678e-02 1.014888e-20)
0.000249549   	(4.245743e+01 1.230006e+02 7.350466e-17)	(4.160990e+01 1.230534e+02 7.349347e-17)	(8.475260e-01 -5.283406e-02 1.119078e-20)
0.000311429   	(4.590540e+01 1.461789e+02 1.265493e-16)	(4.504896e+01 1.462317e+02 1.265373e-16)	(8.564377e-01 -5.280982e-02 1.194869e-20)
0.000384035   	(4.759224e+01 1.734114e+02 1.978607e-16)	(4.672641e+01 1.734637e+02 1.978493e-16)	(8.658331e-01 -5.231831e-02 1.141801e-20)
0.000467256   	(4.725484e+01 1.759151e+02 2.288127e-16)	(4.637870e+01 1.759670e+02 2.288020e-16)	(8.761319e-01 -5.192223e-02 1.071544e-20)
0.00056089    	(4.635822e+01 1.732759e+02 2.431469e-16)	(4.547073e+01 1.733282e+02 2.431363e-16)	(8.874958e-01 -5.223963e-02 1.058677e-20)
0.000663511   	(4.471871e+01 1.751109e+02 2.678736e-16)	(4.381924e+01 1.751643e+02 2.678631e-16)	(8.994711e-01 -5.333900e-02 1.049896e-20)
0.00076529    	(4.250207e+01 1.752365e+02 2.875134e-16)	(4.159181e+01 1.752915e+02 2.875025e-16)	(9.102614e-01 -5.497584e-02 1.088002e-20)
0.000866447   	(4.027480e+01 1.721182e+02 2.941066e-16)	(3.935440e+01 1.721755e+02 2.940944e-16)	(9.204008e-01 -5.725259e-02 1.217120e-20)
0.000966988   	(3.794968e+01 1.702150e+02 2.797347e-16)	(3.702006e+01 1.702753e+02 2.797202e-16)	(9.296128e-01 -6.030143e-02 1.445027e-20)
0.00106446    	(3.514839e+01 1.689988e+02 2.339555e-16)	(3.421038e+01 1.690630e+02 2.339389e-16)	(9.380100e-01 -6.424255e-02 1.662501e-20)
0.00115887    	(3.119824e+01 1.654214e+02 1.767607e-16)	(3.025200e+01 1.654910e+02 1.767412e-16)	(9.462324e-01 -6.954346e-02 1.946809e-20)
0.00125038    	(2.625712e+01 1.588649e+02 1.288045e-16)	(2.530205e+01 1.589416e+02 1.287812e-16)	(9.550726e-01 -7.670951e-02 2.325752e-20)
0.00133983    	(2.148793e+01 1.472999e+02 1.064008e-16)	(2.052325e+01 1.473846e+02 1.063726e-16)	(9.646865e-01 -8.468251e-02 2.822237e-20)
0.0014273     	(1.705439e+01 1.350039e+02 1.151365e-16)	(1.607999e+01 1.350956e+02 1.151052e-16)	(9.743951e-01 -9.174070e-02 3.133409e-20)
0.00151339    	(1.107785e+01 1.243842e+02 1.579712e-16)	(1.009403e+01 1.244821e+02 1.579400e-16)	(9.838212e-01 -9.788807e-02 3.119840e-20)
0.00159822    	(1.195550e-02 1.058649e+02 2.605934e-16)	(-9.807943e-01 1.059682e+02 2.605583e-16)	(9.927498e-01 -1.033346e-01 3.510241e-20)
0.00168232    	(-2.605211e+01 6.088541e+01 4.015759e-16)	(-2.705277e+01 6.099291e+01 4.015338e-16)	(1.000665e+00 -1.074991e-01 4.210820e-20)
0.00176585    	(-7.415939e+01 -3.341336e+01 2.542343e-16)	(-7.516703e+01 -3.330385e+01 2.541922e-16)	(1.007638e+00 -1.095147e-01 4.204892e-20)
0.00184917    	(-5.929472e+01 -2.324114e+01 4.811148e-17)	(-6.031002e+01 -2.312994e+01 4.807832e-17)	(1.015301e+00 -1.112028e-01 3.315869e-20)
0.00193249    	(-1.072180e+01 6.638952e+01 1.011651e-16)	(-1.174582e+01 6.650331e+01 1.011357e-16)	(1.024026e+00 -1.137902e-01 2.940291e-20)
0.00201546    	(7.416641e+00 9.930361e+01 1.352376e-16)	(6.384260e+00 9.942006e+01 1.352100e-16)	(1.032381e+00 -1.164580e-01 2.762058e-20)
0.00209815    	(9.395505e+00 1.092492e+02 1.544601e-16)	(8.354980e+00 1.093682e+02 1.544338e-16)	(1.040525e+00 -1.189871e-01 2.629621e-20)
0.00218042    	(1.236002e+01 1.138205e+02 1.573290e-16)	(1.131159e+01 1.139420e+02 1.573040e-16)	(1.048433e+00 -1.214405e-01 2.493805e-20)
0.00226221    	(1.304589e+01 1.168689e+02 1.633797e-16)	(1.198994e+01 1.169927e+02 1.633563e-16)	(1.055950e+00 -1.238273e-01 2.339681e-20)
0.00234359    	(1.379040e+01 1.184185e+02 1.667008e-16)	(1.272719e+01 1.185447e+02 1.666793e-16)	(1.063213e+00 -1.261818e-01 2.147651e-20)
0.0024247     	(1.401817e+01 1.194334e+02 1.697596e-16)	(1.294789e+01 1.195619e+02 1.697406e-16)	(1.070275e+00 -1.285159e-01 1.897472e-20)
0.00250547    	(1.423321e+01 1.203637e+02 1.711879e-16)	(1.315608e+01 1.204946e+02 1.711720e-16)	(1.077130e+00 -1.308341e-01 1.583191e-20)
0.00258591    	(1.424040e+01 1.206678e+02 1.722144e-16)	(1.315648e+01 1.208010e+02 1.722024e-16)	(1.083917e+00 -1.331698e-01 1.204104e-20)
0.00266596    	(1.418764e+01 1.205869e+02 1.728197e-16)	(1.309705e+01 1.207224e+02 1.728119e-16)	(1.090595e+00 -1.355256e-01 7.792283e-21)
0.00274567    	(1.421349e+01 1.211040e+02 1.730516e-16)	(1.311638e+01 1.212419e+02 1.730483e-16)	(1.097106e+00 -1.378647e-01 3.323695e-21)
0.00282506    	(1.421484e+01 1.215044e+02 1.727646e-16)	(1.311134e+01 1.216446e+02 1.727656e-16)	(1.103494e+00 -1.401794e-01 -9.821988e-22)
0.00290439    	(1.414455e+01 1.217306e+02 1.722048e-16)	(1.303476e+01 1.218731e+02 1.722098e-16)	(1.109791e+00 -1.425037e-01 -4.958988e-21)
0.00298346    	(1.427661e+01 1.222212e+02 1.723884e-16)	(1.316070e+01 1.223660e+02 1.723969e-16)	(1.115908e+00 -1.448150e-01 -8.491828e-21)
0.00306266    	(1.438648e+01 1.228040e+02 1.722042e-16)	(1.326377e+01 1.229513e+02 1.722176e-16)	(1.122712e+00 -1.473216e-01 -1.335941e-20)
0.00314172    	(1.457235e+01 1.236689e+02 1.721625e-16)	(1.344422e+01 1.238185e+02 1.721776e-16)	(1.128128e+00 -1.495470e-01 -1.506778e-20)
0.00322086    	(1.469853e+01 1.244316e+02 1.723549e-16)	(1.356423e+01 1.245834e+02 1.723709e-16)	(1.134302e+00 -1.518643e-01 -1.599075e-20)
0.00330005    	(1.495379e+01 1.252993e+02 1.722912e-16)	(1.381442e+01 1.254534e+02 1.723077e-16)	(1.139371e+00 -1.540298e-01 -1.652886e-20)
0.00337925    	(1.532486e+01 1.266026e+02 1.736000e-16)	(1.418065e+01 1.267588e+02 1.736157e-16)	(1.144209e+00 -1.561383e-01 -1.573570e-20)
0.00345871    	(1.573762e+01 1.276328e+02 1.746845e-16)	(1.458878e+01 1.277910e+02 1.746981e-16)	(1.148833e+00 -1.581914e-01 -1.361950e-20)
0.00353856    	(1.589227e+01 1.284189e+02 1.750614e-16)	(1.473898e+01 1.285791e+02 1.750717e-16)	(1.153292e+00 -1.602016e-01 -1.024853e-20)
0.00361881    	(1.605427e+01 1.292536e+02 1.766343e-16)	(1.489664e+01 1.294157e+02 1.766398e-16)	(1.157624e+00 -1.621560e-01 -5.544851e-21)
0.00369953    	(1.638453e+01 1.301744e+02 1.781198e-16)	(1.522277e+01 1.303384e+02 1.781196e-16)	(1.161758e+00 -1.640191e-01 1.290491e-22)
0.00378066    	(1.670688e+01 1.314027e+02 1.801808e-16)	(1.554109e+01 1.315686e+02 1.801749e-16)	(1.165790e+00 -1.658473e-01 5.825804e-21)
0.0038622     	(1.706219e+01 1.325503e+02 1.829486e-16)	(1.589288e+01 1.327178e+02 1.829370e-16)	(1.169303e+00 -1.674984e-01 1.151312e-20)
0.00394416    	(1.725172e+01 1.334147e+02 1.859051e-16)	(1.607480e+01 1.335851e+02 1.858974e-16)	(1.176924e+00 -1.704572e-01 7.732062e-21)
0.00402661    	(1.749183e+01 1.344822e+02 1.900708e-16)	(1.631157e+01 1.346542e+02 1.900613e-16)	(1.180262e+00 -1.719932e-01 9.496875e-21)
0.00410956    	(1.776865e+01 1.353517e+02 1.949496e-16)	(1.658517e+01 1.355252e+02 1.949388e-16)	(1.183473e+00 -1.734463e-01 1.072501e-20)
0.00419302    	(1.802558e+01 1.363424e+02 2.010910e-16)	(1.683914e+01 1.365172e+02 2.010798e-16)	(1.186441e+00 -1.747666e-01 1.122545e-20)
0.00427706    	(1.814997e+01 1.370309e+02 2.074964e-16)	(1.696095e+01 1.372068e+02 2.074853e-16)	(1.189024e+00 -1.759279e-01 1.104346e-20)
0.00436162    	(1.824362e+01 1.374918e+02 2.139747e-16)	(1.705207e+01 1.376688e+02 2.139651e-16)	(1.191544e+00 -1.770065e-01 9.584888e-21)
0.00444626    	(1.837181e+01 1.380789e+02 2.204874e-16)	(1.718339e+01 1.382567e+02 2.204801e-16)	(1.188420e+00 -1.777408e-01 7.351852e-21)
0.00453097    	(1.832625e+01 1.383880e+02 2.263009e-16)	(1.714098e+01 1.385664e+02 2.262950e-16)	(1.185264e+00 -1.783917e-01 5.877855e-21)
0.00461575    	(1.837666e+01 1.387559e+02 2.309784e-16)	(1.719456e+01 1.389348e+02 2.309734e-16)	(1.182098e+00 -1.789751e-01 5.000384e-21)
0.00470062    	(1.833415e+01 1.388820e+02 2.333490e-16)	(1.715522e+01 1.390615e+02 2.333444e-16)	(1.178936e+00 -1.795003e-01 4.511703e-21)
0.00478548    	(1.828503e+01 1.390216e+02 2.342102e-16)	(1.710924e+01 1.392016e+02 2.342056e-16)	(1.175794e+00 -1.799920e-01 4.598895e-21)
0.00487041    	(1.807702e+01 1.390509e+02 2.329970e-16)	(1.690435e+01 1.392313e+02 2.329915e-16)	(1.172675e+00 -1.804521e-01 5.538807e-21)
0.00495543    	(1.812490e+01 1.392988e+02 2.318958e-16)	(1.695532e+01 1.394797e+02 2.318884e-16)	(1.169573e+00 -1.808721e-01 7.382598e-21)
0.00504052    	(1.813367e+01 1.397684e+02 2.309517e-16)	(1.696721e+01 1.399497e+02 2.309415e-16)	(1.166453e+00 -1.812230e-01 1.025541e-20)
0.00512568    	(1.806068e+01 1.399899e+02 2.297983e-16)	(1.689743e+01 1.401714e+02 2.297840e-16)	(1.163249e+00 -1.814817e-01 1.427004e-20)
0.00521092    	(1.812465e+01 1.406072e+02 2.302398e-16)	(1.696472e+01 1.407888e+02 2.302208e-16)	(1.159931e+00 -1.816270e-01 1.907510e-20)
0.00529624    	(1.838939e+01 1.413112e+02 2.306973e-16)	(1.723288e+01 1.414928e+02 2.306731e-16)	(1.156512e+00 -1.816391e-01 2.414006e-20)
0.00538133    	(1.825147e+01 1.418300e+02 2.315942e-16)	(1.709853e+01 1.420114e+02 2.315652e-16)	(1.152938e+00 -1.814905e-01 2.907406e-20)
0.00546596    	(1.857583e+01 1.427374e+02 2.328396e-16)	(1.742665e+01 1.429186e+02 2.328057e-16)	(1.149182e+00 -1.811935e-01 3.384847e-20)
0.00555022    	(1.877926e+01 1.438201e+02 2.326492e-16)	(1.763394e+01 1.440009e+02 2.326110e-16)	(1.145320e+00 -1.807656e-01 3.820882e-20)
0.0056341     	(1.889928e+01 1.444142e+02 2.302390e-16)	(1.775790e+01 1.445944e+02 2.301971e-16)	(1.141385e+00 -1.802079e-01 4.183778e-20)
0.00571768    	(1.904028e+01 1.454976e+02 2.297532e-16)	(1.790296e+01 1.456771e+02 2.297086e-16)	(1.137320e+00 -1.795199e-01 4.460853e-20)
0.0058009     	(1.929778e+01 1.464801e+02 2.284744e-16)	(1.816462e+01 1.466588e+02 2.284276e-16)	(1.133162e+00 -1.787006e-01 4.681641e-20)
0.00588375    	(1.970333e+01 1.478189e+02 2.267071e-16)	(1.857443e+01 1.479967e+02 2.266584e-16)	(1.128897e+00 -1.777350e-01 4.868930e-20)
0.0059663     	(1.970220e+01 1.484075e+02 2.236245e-16)	(1.857760e+01 1.485842e+02 2.235740e-16)	(1.124599e+00 -1.766945e-01 5.046215e-20)
0.00604865    	(2.004447e+01 1.497476e+02 2.233149e-16)	(1.892421e+01 1.499232e+02 2.232620e-16)	(1.120251e+00 -1.755853e-01 5.293844e-20)
0.00613077    	(2.048188e+01 1.510708e+02 2.238441e-16)	(1.936608e+01 1.512452e+02 2.237875e-16)	(1.115801e+00 -1.743697e-01 5.661550e-20)
0.00621268    	(2.064263e+01 1.519609e+02 2.274443e-16)	(1.953139e+01 1.521339e+02 2.273827e-16)	(1.111233e+00 -1.730534e-01 6.155219e-20)
0.00629445    	(2.082888e+01 1.529306e+02 2.314462e-16)	(1.972217e+01 1.531023e+02 2.313790e-16)	(1.106715e+00 -1.717499e-01 6.725538e-20)
0.00637615    	(2.113561e+01 1.542177e+02 2.388916e-16)	(2.003346e+01 1.543881e+02 2.388178e-16)	(1.102148e+00 -1.704172e-01 7.374067e-20)
0.00645777    	(2.162983e+01 1.555361e+02 2.471701e-16)	(2.053241e+01 1.557051e+02 2.470890e-16)	(1.097425e+00 -1.690059e-01 8.102909e-20)
0.00653932    	(2.168258e+01 1.564183e+02 2.610451e-16)	(2.059000e+01 1.565858e+02 2.609560e-16)	(1.092577e+00 -1.675108e-01 8.900669e-20)
0.00662081    	(2.195356e+01 1.573692e+02 2.740607e-16)	(2.086567e+01 1.575353e+02 2.739641e-16)	(1.087890e+00 -1.660747e-01 9.661606e-20)
0.00670229    	(2.223047e+01 1.586772e+02 2.904903e-16)	(2.114728e+01 1.588418e+02 2.903865e-16)	(1.083189e+00 -1.646233e-01 1.038535e-19)
0.00678377    	(2.271425e+01 1.599468e+02 3.074902e-16)	(2.163592e+01 1.601099e+02 3.073796e-16)	(1.078330e+00 -1.630837e-01 1.105472e-19)
0.00686533    	(2.271155e+01 1.607551e+02 3.264415e-16)	(2.163811e+01 1.609166e+02 3.263244e-16)	(1.073439e+00 -1.615332e-01 1.170218e-19)
0.00694688    	(2.290589e+01 1.615362e+02 3.455624e-16)	(2.183725e+01 1.616962e+02 3.454389e-16)	(1.068637e+00 -1.600035e-01 1.234933e-19)
0.00702851    	(2.305094e+01 1.625293e+02 3.638854e-16)	(2.198711e+01 1.626878e+02 3.637562e-16)	(1.063827e+00 -1.584692e-01 1.292184e-19)
0.0071102     	(2.333605e+01 1.635601e+02 3.806219e-16)	(2.227709e+01 1.637170e+02 3.804883e-16)	(1.058959e+00 -1.568988e-01 1.336029e-19)
0.00719197    	(2.353776e+01 1.646653e+02 3.975874e-16)	(2.248372e+01 1.648206e+02 3.974506e-16)	(1.054046e+00 -1.553319e-01 1.368297e-19)
0.00727381    	(2.358391e+01 1.652460e+02 4.170725e-16)	(2.253474e+01 1.653997e+02 4.169334e-16)	(1.049178e+00 -1.537785e-01 1.391039e-19)
0.00735573    	(2.383415e+01 1.664294e+02 4.308322e-16)	(2.278985e+01 1.665816e+02 4.306923e-16)	(1.044302e+00 -1.522261e-01 1.398705e-19)
0.00743771    	(2.420954e+01 1.677520e+02 4.406747e-16)	(2.317014e+01 1.679027e+02 4.405360e-16)	(1.039403e+00 -1.507183e-01 1.386773e-19)
0.00751977    	(2.453317e+01 1.691637e+02 4.471349e-16)	(2.349868e+01 1.693129e+02 4.469996e-16)	(1.034486e+00 -1.492069e-01 1.353009e-19)
0.0076019     	(2.476639e+01 1.701048e+02 4.523867e-16)	(2.373671e+01 1.702526e+02 4.522565e-16)	(1.029680e+00 -1.477502e-01 1.301229e-19)
0.00768418    	(2.508661e+01 1.714741e+02 4.519519e-16)	(2.406170e+01 1.716204e+02 4.518288e-16)	(1.024901e+00 -1.463156e-01 1.230634e-19)
0.00776653    	(2.554053e+01 1.728891e+02 4.452007e-16)	(2.452039e+01 1.730340e+02 4.450863e-16)	(1.020141e+00 -1.449099e-01 1.143216e-19)
0.00784903    	(2.598867e+01 1.745114e+02 4.305423e-16)	(2.497327e+01 1.746549e+02 4.304386e-16)	(1.015392e+00 -1.434825e-01 1.036609e-19)
0.0079316     	(2.619026e+01 1.754078e+02 4.093230e-16)	(2.517949e+01 1.755498e+02 4.092322e-16)	(1.010772e+00 -1.420762e-01 9.074169e-20)
0.00801433    	(2.660032e+01 1.769119e+02 3.880316e-16)	(2.559408e+01 1.770527e+02 3.879544e-16)	(1.006238e+00 -1.407584e-01 7.727733e-20)
0.0080972     	(2.707210e+01 1.783426e+02 3.611112e-16)	(2.607032e+01 1.784821e+02 3.610467e-16)	(1.001772e+00 -1.394750e-01 6.456547e-20)
0.00818021    	(2.754691e+01 1.800259e+02 3.308759e-16)	(2.654964e+01 1.801641e+02 3.308221e-16)	(9.972724e-01 -1.381734e-01 5.377451e-20)
0.00826338    	(2.771040e+01 1.809047e+02 3.005852e-16)	(2.671752e+01 1.810417e+02 3.005411e-16)	(9.928845e-01 -1.369051e-01 4.413272e-20)
0.00834671    	(2.813811e+01 1.822330e+02 2.731655e-16)	(2.714952e+01 1.823688e+02 2.731286e-16)	(9.885929e-01 -1.357383e-01 3.694616e-20)
0.0084301     	(2.854095e+01 1.835768e+02 2.474405e-16)	(2.755660e+01 1.837114e+02 2.474074e-16)	(9.843506e-01 -1.346139e-01 3.308751e-20)
0.00851365    	(2.902373e+01 1.850537e+02 2.251158e-16)	(2.804369e+01 1.851872e+02 2.250843e-16)	(9.800396e-01 -1.334762e-01 3.145441e-20)
0.00859735    	(2.914172e+01 1.859369e+02 2.068356e-16)	(2.816590e+01 1.860692e+02 2.068037e-16)	(9.758167e-01 -1.323902e-01 3.191699e-20)
0.00868129    	(2.966506e+01 1.873156e+02 1.921816e-16)	(2.869342e+01 1.874470e+02 1.921471e-16)	(9.716431e-01 -1.313558e-01 3.448986e-20)
0.00876537    	(3.020583e+01 1.889595e+02 1.811479e-16)	(2.923834e+01 1.890898e+02 1.811098e-16)	(9.674908e-01 -1.303478e-01 3.810282e-20)
0.00884962    	(3.054966e+01 1.900681e+02 1.713201e-16)	(2.958642e+01 1.901974e+02 1.712772e-16)	(9.632406e-01 -1.293263e-01 4.285784e-20)
0.00893402    	(3.068987e+01 1.910405e+02 1.627357e-16)	(2.973073e+01 1.911688e+02 1.626869e-16)	(9.591436e-01 -1.283775e-01 4.883265e-20)
0.00901857    	(3.111888e+01 1.921016e+02 1.551967e-16)	(3.016382e+01 1.922290e+02 1.551425e-16)	(9.550640e-01 -1.274278e-01 5.422395e-20)
0.0091032     	(3.165065e+01 1.936395e+02 1.494484e-16)	(3.069968e+01 1.937660e+02 1.493887e-16)	(9.509668e-01 -1.264911e-01 5.977014e-20)
0.00918776    	(3.196156e+01 1.947704e+02 1.414219e-16)	(3.101478e+01 1.948960e+02 1.413562e-16)	(9.467880e-01 -1.255852e-01 6.573073e-20)
0.00927231    	(3.211111e+01 1.954930e+02 1.320900e-16)	(3.116837e+01 1.956178e+02 1.320183e-16)	(9.427408e-01 -1.247601e-01 7.172473e-20)
0.00935679    	(3.254230e+01 1.966723e+02 1.240499e-16)	(3.160359e+01 1.967962e+02 1.239731e-16)	(9.387175e-01 -1.239525e-01 7.676884e-20)
0.00944119    	(3.304965e+01 1.979162e+02 1.156045e-16)	(3.211498e+01 1.980393e+02 1.155229e-16)	(9.346737e-01 -1.231266e-01 8.164875e-20)
0.00952551    	(3.329092e+01 1.987043e+02 1.058948e-16)	(3.236032e+01 1.988267e+02 1.058093e-16)	(9.305920e-01 -1.223439e-01 8.553490e-20)
0.00960975    	(3.344332e+01 1.993921e+02 9.612346e-17)	(3.251661e+01 1.995137e+02 9.603499e-17)	(9.267111e-01 -1.216344e-01 8.847472e-20)
0.00969391    	(3.372226e+01 2.001493e+02 8.734469e-17)	(3.279935e+01 2.002702e+02 8.725416e-17)	(9.229062e-01 -1.209333e-01 9.052852e-20)
0.00977799    	(3.413919e+01 2.012038e+02 8.052844e-17)	(3.322008e+01 2.013240e+02 8.043768e-17)	(9.191116e-01 -1.202063e-01 9.076007e-20)
0.009862      	(3.444320e+01 2.021121e+02 7.189663e-17)	(3.352795e+01 2.022316e+02 7.180705e-17)	(9.152480e-01 -1.195010e-01 8.958224e-20)
0.00994593    	(3.447552e+01 2.026786e+02 6.269983e-17)	(3.356394e+01 2.027975e+02 6.261259e-17)	(9.115878e-01 -1.188801e-01 8.723089e-20)
0.0100298     	(3.474629e+01 2.034618e+02 5.466996e-17)	(3.383826e+01 2.035801e+02 5.458611e-17)	(9.080320e-01 -1.182793e-01 8.385419e-20)
0.0101136     	(3.512644e+01 2.044432e+02 4.853535e-17)	(3.422191e+01 2.045609e+02 4.845662e-17)	(9.045310e-01 -1.176750e-01 7.872798e-20)
0.0101974     	(3.543823e+01 2.055314e+02 4.169115e-17)	(3.453724e+01 2.056485e+02 4.161897e-17)	(9.009933e-01 -1.170788e-01 7.218244e-20)
0.0102811     	(3.537916e+01 2.057539e+02 3.000752e-17)	(3.448154e+01 2.058705e+02 2.994223e-17)	(8.976215e-01 -1.165456e-01 6.528772e-20)
0.0103648     	(3.551535e+01 2.061576e+02 1.978475e-17)	(3.462096e+01 2.062737e+02 1.972630e-17)	(8.943870e-01 -1.160458e-01 5.844663e-20)
0.0104484     	(3.580552e+01 2.070457e+02 1.265635e-17)	(3.491425e+01 2.071613e+02 1.260529e-17)	(8.912710e-01 -1.155966e-01 5.106286e-20)
0.0105319     	(3.622070e+01 2.085111e+02 5.337920e-18)	(3.533250e+01 2.086263e+02 5.294339e-18)	(8.882017e-01 -1.151823e-01 4.358092e-20)
0.0106154     	(3.637970e+01 2.096172e+02 -7.318194e-18)	(3.549446e+01 2.097321e+02 -7.355089e-18)	(8.852348e-01 -1.148042e-01 3.689583e-20)
0.0106988     	(3.624918e+01 2.089444e+02 -1.635546e-17)	(3.536679e+01 2.090589e+02 -1.638595e-17)	(8.823894e-01 -1.144386e-01 3.049618e-20)
0.0107821     	(3.634821e+01 2.092854e+02 -2.006195e-17)	(3.546856e+01 2.093995e+02 -2.008694e-17)	(8.796532e-01 -1.141405e-01 2.499188e-20)
0.0108653     	(3.660367e+01 2.096425e+02 -2.390591e-17)	(3.572672e+01 2.097564e+02 -2.392598e-17)	(8.769443e-01 -1.138591e-01 2.007486e-20)
0.0109485     	(3.657070e+01 2.096460e+02 -2.351438e-17)	(3.569650e+01 2.097596e+02 -2.353020e-17)	(8.742017e-01 -1.135584e-01 1.581982e-20)
0.0110315     	(3.620373e+01 2.083082e+02 -2.171645e-17)	(3.533210e+01 2.084215e+02 -2.172823e-17)	(8.716290e-01 -1.132886e-01 1.177654e-20)
0.0111145     	(3.629953e+01 2.084639e+02 -1.662345e-17)	(3.543040e+01 2.085770e+02 -1.663152e-17)	(8.691349e-01 -1.130883e-01 8.072885e-21)
0.0111974     	(3.643470e+01 2.089136e+02 -5.786509e-18)	(3.556799e+01 2.090265e+02 -5.790833e-18)	(8.667059e-01 -1.129246e-01 4.323626e-21)
0.0112803     	(3.663061e+01 2.092747e+02 8.971039e-18)	(3.576635e+01 2.093874e+02 8.970425e-18)	(8.642649e-01 -1.127396e-01 6.140879e-22)
0.0113631     	(3.640522e+01 2.090411e+02 3.023383e-17)	(3.554331e+01 2.091537e+02 3.023668e-17)	(8.619108e-01 -1.125613e-01 -2.848122e-21)
0.0114459     	(3.662027e+01 2.089597e+02 4.886527e-17)	(3.576065e+01 2.090721e+02 4.887192e-17)	(8.596149e-01 -1.124139e-01 -6.651470e-21)
0.0115286     	(3.673644e+01 2.091840e+02 7.299238e-17)	(3.587901e+01 2.092963e+02 7.300348e-17)	(8.574298e-01 -1.123280e-01 -1.109513e-20)
0.0116113     	(3.696725e+01 2.092482e+02 9.885658e-17)	(3.611198e+01 2.093605e+02 9.887246e-17)	(8.552647e-01 -1.122378e-01 -1.588135e-20)
0.011694      	(3.686534e+01 2.090349e+02 1.286468e-16)	(3.601224e+01 2.091470e+02 1.286676e-16)	(8.531002e-01 -1.121308e-01 -2.081966e-20)
0.0117767     	(3.678340e+01 2.083115e+02 1.592247e-16)	(3.593234e+01 2.084235e+02 1.592506e-16)	(8.510584e-01 -1.120835e-01 -2.588219e-20)
0.0118593     	(3.669840e+01 2.074199e+02 1.832121e-16)	(3.584936e+01 2.075319e+02 1.832437e-16)	(8.490428e-01 -1.120853e-01 -3.157294e-20)
0.0119417     	(3.661721e+01 2.066443e+02 2.070256e-16)	(3.577014e+01 2.067564e+02 2.070632e-16)	(8.470689e-01 -1.120906e-01 -3.763120e-20)
0.0120241     	(3.657388e+01 2.058052e+02 2.304167e-16)	(3.572878e+01 2.059173e+02 2.304608e-16)	(8.450944e-01 -1.120899e-01 -4.407606e-20)
0.0121064     	(3.613039e+01 2.042470e+02 2.550426e-16)	(3.528715e+01 2.043591e+02 2.550934e-16)	(8.432415e-01 -1.121065e-01 -5.074415e-20)
0.0121886     	(3.584597e+01 2.024410e+02 2.735026e-16)	(3.500453e+01 2.025531e+02 2.735598e-16)	(8.414417e-01 -1.121087e-01 -5.723583e-20)
0.0122708     	(3.554781e+01 2.011642e+02 2.896838e-16)	(3.470812e+01 2.012763e+02 2.897479e-16)	(8.396961e-01 -1.120980e-01 -6.412387e-20)
0.0123528     	(3.549694e+01 1.999249e+02 3.023438e-16)	(3.465901e+01 2.000369e+02 3.024157e-16)	(8.379248e-01 -1.120797e-01 -7.190222e-20)
0.0124348     	(3.512964e+01 1.984424e+02 3.155828e-16)	(3.429355e+01 1.985545e+02 3.156633e-16)	(8.360905e-01 -1.120425e-01 -8.056522e-20)
0.0125167     	(3.448749e+01 1.958196e+02 3.289932e-16)	(3.365318e+01 1.959316e+02 3.290822e-16)	(8.343188e-01 -1.119792e-01 -8.907562e-20)
0.0125986     	(3.399906e+01 1.932533e+02 3.405580e-16)	(3.316654e+01 1.933652e+02 3.406558e-16)	(8.325266e-01 -1.118713e-01 -9.778937e-20)
0.0126803     	(3.390829e+01 1.918204e+02 3.505317e-16)	(3.307752e+01 1.919322e+02 3.506388e-16)	(8.307689e-01 -1.117992e-01 -1.070734e-19)
0.012762      	(3.361260e+01 1.897111e+02 3.608090e-16)	(3.278357e+01 1.898228e+02 3.609253e-16)	(8.290356e-01 -1.117038e-01 -1.163318e-19)
0.0128436     	(3.289176e+01 1.873113e+02 3.732807e-16)	(3.206433e+01 1.874229e+02 3.734059e-16)	(8.274324e-01 -1.115899e-01 -1.252207e-19)
0.0129252     	(3.232118e+01 1.848174e+02 3.835310e-16)	(3.149529e+01 1.849289e+02 3.836647e-16)	(8.258858e-01 -1.114085e-01 -1.336420e-19)
0.0130068     	(3.234705e+01 1.831659e+02 3.897569e-16)	(3.152275e+01 1.832772e+02 3.898988e-16)	(8.242971e-01 -1.112696e-01 -1.418738e-19)
0.0130883     	(3.225479e+01 1.818839e+02 3.991362e-16)	(3.143210e+01 1.819950e+02 3.992856e-16)	(8.226827e-01 -1.111604e-01 -1.493608e-19)
0.0131698     	(3.189111e+01 1.802962e+02 4.096474e-16)	(3.107010e+01 1.804072e+02 4.098032e-16)	(8.210106e-01 -1.109857e-01 -1.558552e-19)
0.0132512     	(3.120835e+01 1.787429e+02 4.222868e-16)	(3.038891e+01 1.788537e+02 4.224480e-16)	(8.194353e-01 -1.107767e-01 -1.611405e-19)
0.0133326     	(3.112536e+01 1.772565e+02 4.283850e-16)	(3.030749e+01 1.773671e+02 4.285508e-16)	(8.178732e-01 -1.105650e-01 -1.657854e-19)
0.0134139     	(3.118506e+01 1.764689e+02 4.347864e-16)	(3.036879e+01 1.765793e+02 4.349562e-16)	(8.162767e-01 -1.104108e-01 -1.698628e-19)
0.0134951     	(3.116378e+01 1.759964e+02 4.430604e-16)	(3.034912e+01 1.761066e+02 4.432334e-16)	(8.146557e-01 -1.102754e-01 -1.729938e-19)
0.0135763     	(3.091973e+01 1.755559e+02 4.525890e-16)	(3.010676e+01 1.756659e+02 4.527644e-16)	(8.129693e-01 -1.100744e-01 -1.753161e-19)
0.0136574     	(3.041873e+01 1.748208e+02 4.627256e-16)	(2.960737e+01 1.749306e+02 4.629026e-16)	(8.113552e-01 -1.098132e-01 -1.769207e-19)
0.0137385     	(3.061108e+01 1.743075e+02 4.657480e-16)	(2.980134e+01 1.744171e+02 4.659260e-16)	(8.097443e-01 -1.095836e-01 -1.780668e-19)
0.0138195     	(3.101406e+01 1.749146e+02 4.677780e-16)	(3.020598e+01 1.750241e+02 4.679571e-16)	(8.080802e-01 -1.094298e-01 -1.790755e-19)
0.0139005     	(3.100598e+01 1.751675e+02 4.740085e-16)	(3.019956e+01 1.752768e+02 4.741890e-16)	(8.064204e-01 -1.092821e-01 -1.804820e-19)
0.0139814     	(3.094331e+01 1.761526e+02 4.801972e-16)	(3.013863e+01 1.762617e+02 4.803792e-16)	(8.046709e-01 -1.090648e-01 -1.819984e-19)
0.0140623     	(3.081296e+01 1.765661e+02 4.858105e-16)	(3.001008e+01 1.766749e+02 4.859943e-16)	(8.028856e-01 -1.087984e-01 -1.837579e-19)
0.0141432     	(3.125077e+01 1.774295e+02 4.847394e-16)	(3.044967e+01 1.775381e+02 4.849254e-16)	(8.011030e-01 -1.085730e-01 -1.860001e-19)
0.0142242     	(3.143265e+01 1.777939e+02 4.858313e-16)	(3.063336e+01 1.779022e+02 4.860205e-16)	(7.992962e-01 -1.083866e-01 -1.892146e-19)
0.014305      	(3.140261e+01 1.782098e+02 4.906281e-16)	(3.060511e+01 1.783180e+02 4.908212e-16)	(7.975006e-01 -1.082290e-01 -1.930716e-19)
0.0143858     	(3.106065e+01 1.779202e+02 4.976892e-16)	(3.026499e+01 1.780282e+02 4.978867e-16)	(7.956588e-01 -1.080079e-01 -1.974134e-19)
0.0144667     	(3.116026e+01 1.788263e+02 5.002016e-16)	(3.036653e+01 1.789340e+02 5.004034e-16)	(7.937348e-01 -1.077589e-01 -2.018237e-19)
0.0145475     	(3.157235e+01 1.797330e+02 4.985398e-16)	(3.078054e+01 1.798405e+02 4.987468e-16)	(7.918147e-01 -1.075730e-01 -2.069775e-19)
0.0146284     	(3.180305e+01 1.811820e+02 4.990483e-16)	(3.101321e+01 1.812894e+02 4.992610e-16)	(7.898420e-01 -1.074014e-01 -2.126230e-19)
0.0147092     	(3.205743e+01 1.828780e+02 4.993909e-16)	(3.126960e+01 1.829853e+02 4.996092e-16)	(7.878213e-01 -1.072699e-01 -2.182883e-19)
0.0147901     	(3.219178e+01 1.848897e+02 5.020424e-16)	(3.140601e+01 1.849968e+02 5.022656e-16)	(7.857663e-01 -1.071266e-01 -2.231744e-19)
0.0148709     	(3.240751e+01 1.866637e+02 5.031778e-16)	(3.162388e+01 1.867707e+02 5.034048e-16)	(7.836333e-01 -1.069464e-01 -2.270004e-19)
0.0149518     	(3.296699e+01 1.883640e+02 5.000347e-16)	(3.218547e+01 1.884708e+02 5.002655e-16)	(7.815206e-01 -1.068230e-01 -2.307873e-19)
0.0150326     	(3.336936e+01 1.906702e+02 4.989347e-16)	(3.258996e+01 1.907769e+02 4.991686e-16)	(7.793953e-01 -1.066964e-01 -2.339493e-19)
0.0151134     	(3.357447e+01 1.916801e+02 4.993194e-16)	(3.279715e+01 1.917867e+02 4.995554e-16)	(7.773150e-01 -1.065818e-01 -2.360365e-19)
0.0151944     	(3.387316e+01 1.938530e+02 5.004996e-16)	(3.309797e+01 1.939595e+02 5.007366e-16)	(7.751894e-01 -1.064886e-01 -2.370761e-19)
0.0152753     	(3.419368e+01 1.965948e+02 5.020224e-16)	(3.342069e+01 1.967011e+02 5.022599e-16)	(7.729916e-01 -1.063506e-01 -2.375054e-19)
0.0153562     	(3.496960e+01 1.994341e+02 4.975311e-16)	(3.419887e+01 1.995403e+02 4.977675e-16)	(7.707358e-01 -1.062439e-01 -2.364356e-19)
0.0154372     	(3.555903e+01 2.023090e+02 4.953491e-16)	(3.479057e+01 2.024152e+02 4.955833e-16)	(7.684615e-01 -1.061590e-01 -2.342388e-19)
0.0155182     	(3.603162e+01 2.052152e+02 4.970826e-16)	(3.526546e+01 2.053213e+02 4.973133e-16)	(7.661555e-01 -1.060755e-01 -2.307178e-19)
0.0155993     	(3.657339e+01 2.082906e+02 4.968024e-16)	(3.580959e+01 2.083966e+02 4.970281e-16)	(7.638023e-01 -1.060278e-01 -2.257620e-19)
0.0156804     	(3.699087e+01 2.117248e+02 4.999743e-16)	(3.622950e+01 2.118308e+02 5.001944e-16)	(7.613647e-01 -1.059419e-01 -2.201327e-19)
0.0157615     	(3.780738e+01 2.144451e+02 4.958282e-16)	(3.704859e+01 2.145509e+02 4.960423e-16)	(7.587959e-01 -1.058314e-01 -2.140449e-19)
0.0158427     	(3.850277e+01 2.176552e+02 4.958641e-16)	(3.774658e+01 2.177609e+02 4.960706e-16)	(7.561965e-01 -1.057352e-01 -2.064906e-19)
0.0159239     	(3.916531e+01 2.209076e+02 4.961405e-16)	(3.841177e+01 2.210133e+02 4.963389e-16)	(7.535412e-01 -1.056400e-01 -1.984209e-19)
0.0160051     	(3.977182e+01 2.244117e+02 4.982273e-16)	(3.902101e+01 2.245172e+02 4.984173e-16)	(7.508104e-01 -1.055518e-01 -1.900100e-19)
0.0160864     	(4.037983e+01 2.278223e+02 4.997849e-16)	(3.963182e+01 2.279278e+02 4.999663e-16)	(7.480123e-01 -1.054842e-01 -1.814037e-19)
0.0161677     	(4.088278e+01 2.311276e+02 5.049742e-16)	(4.013766e+01 2.312329e+02 5.051465e-16)	(7.451150e-01 -1.053606e-01 -1.722452e-19)
0.016249      	(4.170771e+01 2.336563e+02 5.025215e-16)	(4.096558e+01 2.337615e+02 5.026836e-16)	(7.421319e-01 -1.052345e-01 -1.620815e-19)
0.0163304     	(4.234768e+01 2.370872e+02 5.057050e-16)	(4.160853e+01 2.371924e+02 5.058564e-16)	(7.391574e-01 -1.051151e-01 -1.514412e-19)
0.0164118     	(4.299828e+01 2.400860e+02 5.081302e-16)	(4.226213e+01 2.401909e+02 5.082705e-16)	(7.361424e-01 -1.049640e-01 -1.402933e-19)
0.0164932     	(4.371618e+01 2.437792e+02 5.107245e-16)	(4.298312e+01 2.438840e+02 5.108535e-16)	(7.330638e-01 -1.048112e-01 -1.289918e-19)
0.0165747     	(4.423514e+01 2.472509e+02 5.176793e-16)	(4.350524e+01 2.473555e+02 5.177969e-16)	(7.298950e-01 -1.045972e-01 -1.176474e-19)
0.0166563     	(4.494967e+01 2.496141e+02 5.177878e-16)	(4.422305e+01 2.497184e+02 5.178944e-16)	(7.266196e-01 -1.043220e-01 -1.065994e-19)
0.0167378     	(4.555795e+01 2.524927e+02 5.238002e-16)	(4.483464e+01 2.525967e+02 5.238954e-16)	(7.233134e-01 -1.039965e-01 -9.520452e-20)
0.0168194     	(4.616382e+01 2.546850e+02 5.267532e-16)	(4.544388e+01 2.547886e+02 5.268372e-16)	(7.199365e-01 -1.036180e-01 -8.403328e-20)
0.0169011     	(4.685153e+01 2.575834e+02 5.307980e-16)	(4.613506e+01 2.576866e+02 5.308708e-16)	(7.164611e-01 -1.032116e-01 -7.280465e-20)
0.0169828     	(4.741636e+01 2.602699e+02 5.366500e-16)	(4.670343e+01 2.603727e+02 5.367118e-16)	(7.129341e-01 -1.027497e-01 -6.183086e-20)
0.0170645     	(4.789476e+01 2.632265e+02 5.446774e-16)	(4.718542e+01 2.633287e+02 5.447301e-16)	(7.093430e-01 -1.021981e-01 -5.268083e-20)
0.0171462     	(4.856763e+01 2.652202e+02 5.450610e-16)	(4.786192e+01 2.653218e+02 5.451062e-16)	(7.057122e-01 -1.015893e-01 -4.521605e-20)