# Force       
# CofR        : (5.000000e+00 5.000000e-03 0.000000e+00)
#
# Time        	(total_x total_y total_z)	(pressure_x pressure_y pressure_z)	(viscous_x viscous_y viscous_z)
1.20005e-05   	(4.119035e+04 9.134882e+04 8.535450e-14)	(4.118954e+04 9.134885e+04 8.535444e-14)	(8.131393e-01 -3.633344e-02 5.467881e-20)
2.64017e-05   	(1.272967e+03 2.165614e+03 1.021848e-15)	(1.272161e+03 2.165664e+03 1.021801e-15)	(8.063744e-01 -5.095943e-02 4.723471e-20)
4.36833e-05   	(2.571444e+02 3.810705e+02 5.221450e-16)	(2.563369e+02 3.811276e+02 5.220989e-16)	(8.074552e-01 -5.711720e-02 4.609415e-20)
6.44211e-05   	(8.700231e+01 1.875450e+02 3.021180e-16)	(8.619267e+01 1.876051e+02 3.020723e-16)	(8.096397e-01 -6.003173e-02 4.566125e-20)
8.93055e-05   	(4.032098e+01 1.424557e+02 2.080001e-16)	(3.950842e+01 1.425176e+02 2.079553e-16)	(8.125654e-01 -6.195712e-02 4.481332e-20)
0.000119165   	(3.423437e+01 1.368866e+02 2.110801e-16)	(3.341818e+01 1.369499e+02 2.110364e-16)	(8.161884e-01 -6.336803e-02 4.371402e-20)
0.00015499    	(4.115739e+01 1.368317e+02 2.498638e-16)	(4.033638e+01 1.368962e+02 2.498214e-16)	(8.210103e-01 -6.446484e-02 4.244207e-20)
0.000197972   	(4.754594e+01 1.375126e+02 2.992567e-16)	(4.671872e+01 1.375779e+02 2.992153e-16)	(8.272119e-01 -6.527266e-02 4.144804e-20)
0.000249549   	(5.210248e+01 1.415642e+02 3.636267e-16)	(5.126781e+01 1.416299e+02 3.635854e-16)	(8.346729e-01 -6.570730e-02 4.125343e-20)
0.000311429   	(5.569321e+01 1.488635e+02 4.212762e-16)	(5.484975e+01 1.489294e+02 4.212343e-16)	(8.434634e-01 -6.588751e-02 4.185821e-20)
0.000383719   	(5.904296e+01 1.639472e+02 4.794716e-16)	(5.819021e+01 1.640131e+02 4.794288e-16)	(8.527516e-01 -6.593050e-02 4.280572e-20)
0.000466388   	(6.182574e+01 1.948172e+02 6.581286e-16)	(6.096344e+01 1.948835e+02 6.580844e-16)	(8.622959e-01 -6.622617e-02 4.418020e-20)
0.000559237   	(6.215032e+01 2.242806e+02 8.846472e-16)	(6.127846e+01 2.243478e+02 8.846017e-16)	(8.718545e-01 -6.717832e-02 4.549034e-20)
0.000659885   	(5.957106e+01 2.200605e+02 9.041021e-16)	(5.868958e+01 2.201295e+02 9.040566e-16)	(8.814778e-01 -6.896019e-02 4.549343e-20)
0.00075883    	(5.653489e+01 2.141597e+02 9.016270e-16)	(5.564478e+01 2.142312e+02 9.015819e-16)	(8.901052e-01 -7.147982e-02 4.513962e-20)
0.000853255   	(5.344538e+01 2.072947e+02 8.979745e-16)	(5.254802e+01 2.073692e+02 8.979296e-16)	(8.973638e-01 -7.458119e-02 4.483759e-20)
0.000943718   	(5.087125e+01 2.030221e+02 9.075996e-16)	(4.996807e+01 2.031003e+02 9.075544e-16)	(9.031813e-01 -7.824943e-02 4.517854e-20)
0.00103115    	(4.823609e+01 2.005899e+02 9.307047e-16)	(4.732759e+01 2.006726e+02 9.306574e-16)	(9.084979e-01 -8.265998e-02 4.731872e-20)
0.00111595    	(4.481498e+01 1.984178e+02 9.686568e-16)	(4.390148e+01 1.985057e+02 9.686049e-16)	(9.134991e-01 -8.796802e-02 5.191460e-20)
0.00119877    	(3.996474e+01 1.930957e+02 1.007168e-15)	(3.904583e+01 1.931905e+02 1.007113e-15)	(9.189095e-01 -9.481941e-02 5.491510e-20)
0.00128015    	(3.400085e+01 1.833941e+02 1.038870e-15)	(3.307550e+01 1.834974e+02 1.038821e-15)	(9.253553e-01 -1.033310e-01 4.937713e-20)
0.00136041    	(2.803628e+01 1.678406e+02 1.041414e-15)	(2.710373e+01 1.679525e+02 1.041376e-15)	(9.325526e-01 -1.118923e-01 3.782464e-20)
0.00143996    	(2.177480e+01 1.534500e+02 1.054224e-15)	(2.083490e+01 1.535692e+02 1.054198e-15)	(9.399005e-01 -1.191185e-01 2.658275e-20)
0.00151913    	(1.247839e+01 1.379551e+02 1.088168e-15)	(1.153117e+01 1.380806e+02 1.088149e-15)	(9.472270e-01 -1.254821e-01 1.841410e-20)
0.00159804    	(-1.042995e+01 1.027744e+02 1.137780e-15)	(-1.138401e+01 1.029052e+02 1.137765e-15)	(9.540625e-01 -1.307168e-01 1.506016e-20)
0.00167701    	(-7.267224e+01 -2.580884e+00 1.186900e-15)	(-7.363137e+01 -2.447518e+00 1.186880e-15)	(9.591369e-01 -1.333662e-01 2.060641e-20)
0.00175631    	(-1.042962e+02 -7.224862e+01 1.163515e-15)	(-1.052598e+02 -7.211457e+01 1.163482e-15)	(9.636490e-01 -1.340540e-01 3.332081e-20)
0.00183605    	(-2.724628e+01 4.621445e+01 1.025633e-15)	(-2.821671e+01 4.635043e+01 1.025594e-15)	(9.704313e-01 -1.359807e-01 3.954781e-20)
0.00191586    	(8.960202e+00 1.129893e+02 9.960387e-16)	(7.982610e+00 1.131280e+02 9.959969e-16)	(9.775920e-01 -1.386707e-01 4.184494e-20)
0.0019956     	(1.622616e+01 1.310141e+02 1.006150e-15)	(1.524149e+01 1.311554e+02 1.006107e-15)	(9.846679e-01 -1.412503e-01 4.318049e-20)
0.00207508    	(1.798256e+01 1.346486e+02 1.002388e-15)	(1.699902e+01 1.347914e+02 1.002344e-15)	(9.835465e-01 -1.428678e-01 4.379306e-20)
0.00215438    	(1.887576e+01 1.365319e+02 1.001551e-15)	(1.789359e+01 1.366763e+02 1.001507e-15)	(9.821692e-01 -1.444372e-01 4.415882e-20)
0.00223309    	(1.933510e+01 1.382881e+02 1.006431e-15)	(1.835441e+01 1.384341e+02 1.006386e-15)	(9.806851e-01 -1.459617e-01 4.434379e-20)
0.00231124    	(1.958974e+01 1.391754e+02 1.009721e-15)	(1.861063e+01 1.393229e+02 1.009677e-15)	(9.791173e-01 -1.474184e-01 4.450530e-20)
0.00238908    	(1.977946e+01 1.399879e+02 1.013529e-15)	(1.880203e+01 1.401367e+02 1.013484e-15)	(9.774304e-01 -1.488390e-01 4.451025e-20)
0.00246655    	(1.998642e+01 1.409089e+02 1.017058e-15)	(1.901082e+01 1.410591e+02 1.017014e-15)	(9.756069e-01 -1.502080e-01 4.420461e-20)
0.00254384    	(2.021073e+01 1.416987e+02 1.019243e-15)	(1.923707e+01 1.418502e+02 1.019200e-15)	(9.736567e-01 -1.515180e-01 4.349539e-20)
0.002621      	(2.039226e+01 1.419872e+02 1.018923e-15)	(1.942067e+01 1.421399e+02 1.018881e-15)	(9.715939e-01 -1.527624e-01 4.231889e-20)
0.00269804    	(2.082516e+01 1.432928e+02 1.019583e-15)	(1.985573e+01 1.434468e+02 1.019543e-15)	(9.694283e-01 -1.539757e-01 4.064821e-20)
0.0027752     	(2.122127e+01 1.442577e+02 1.018618e-15)	(2.025417e+01 1.444128e+02 1.018580e-15)	(9.671068e-01 -1.551354e-01 3.873404e-20)
0.00285224    	(2.128663e+01 1.449825e+02 1.021014e-15)	(2.032197e+01 1.451386e+02 1.020977e-15)	(9.646614e-01 -1.561761e-01 3.694676e-20)
0.00292965    	(2.162185e+01 1.460742e+02 1.021099e-15)	(2.065978e+01 1.462314e+02 1.021063e-15)	(9.620726e-01 -1.571483e-01 3.547897e-20)
0.00300694    	(2.200552e+01 1.471827e+02 1.020313e-15)	(2.104621e+01 1.473407e+02 1.020279e-15)	(9.593094e-01 -1.580169e-01 3.418573e-20)
0.00308441    	(2.252511e+01 1.486217e+02 1.019389e-15)	(2.156877e+01 1.487805e+02 1.019356e-15)	(9.563431e-01 -1.587787e-01 3.285001e-20)
0.00316213    	(2.311220e+01 1.503261e+02 1.019336e-15)	(2.215903e+01 1.504856e+02 1.019305e-15)	(9.531739e-01 -1.594458e-01 3.130365e-20)
0.00323991    	(2.372002e+01 1.518516e+02 1.018237e-15)	(2.277022e+01 1.520116e+02 1.018207e-15)	(9.498080e-01 -1.600144e-01 2.967134e-20)
0.00331807    	(2.407079e+01 1.529566e+02 1.018296e-15)	(2.312452e+01 1.531170e+02 1.018268e-15)	(9.462679e-01 -1.604298e-01 2.786829e-20)
0.00339693    	(2.446068e+01 1.543793e+02 1.019341e-15)	(2.351813e+01 1.545400e+02 1.019316e-15)	(9.425529e-01 -1.607135e-01 2.568397e-20)
0.00347663    	(2.470108e+01 1.550881e+02 1.017898e-15)	(2.376244e+01 1.552489e+02 1.017875e-15)	(9.386428e-01 -1.608608e-01 2.309555e-20)
0.00355727    	(2.499931e+01 1.560850e+02 1.016840e-15)	(2.406474e+01 1.562459e+02 1.016820e-15)	(9.345715e-01 -1.609073e-01 2.028596e-20)
0.00363893    	(2.515283e+01 1.566335e+02 1.015275e-15)	(2.422251e+01 1.567943e+02 1.015257e-15)	(9.303144e-01 -1.608835e-01 1.747471e-20)
0.00372066    	(2.518765e+01 1.570744e+02 1.014663e-15)	(2.426167e+01 1.572352e+02 1.014648e-15)	(9.259808e-01 -1.607982e-01 1.490443e-20)
0.00380246    	(2.526888e+01 1.574977e+02 1.013874e-15)	(2.434729e+01 1.576584e+02 1.013862e-15)	(9.215925e-01 -1.606998e-01 1.253710e-20)
0.00388433    	(2.530458e+01 1.579104e+02 1.013428e-15)	(2.438741e+01 1.580710e+02 1.013417e-15)	(9.171679e-01 -1.605850e-01 1.045601e-20)
0.00396634    	(2.515241e+01 1.579482e+02 1.012656e-15)	(2.423966e+01 1.581087e+02 1.012648e-15)	(9.127513e-01 -1.604207e-01 8.600841e-21)
0.00404849    	(2.515973e+01 1.583177e+02 1.012027e-15)	(2.425140e+01 1.584779e+02 1.012020e-15)	(9.083364e-01 -1.601844e-01 7.144288e-21)
0.00413078    	(2.529729e+01 1.590320e+02 1.011371e-15)	(2.439351e+01 1.591919e+02 1.011365e-15)	(9.037838e-01 -1.598222e-01 5.972382e-21)
0.00421315    	(2.543543e+01 1.596633e+02 1.010393e-15)	(2.453635e+01 1.598226e+02 1.010388e-15)	(8.990862e-01 -1.593039e-01 4.759372e-21)
0.00429572    	(2.545403e+01 1.600994e+02 1.009861e-15)	(2.455969e+01 1.602581e+02 1.009858e-15)	(8.943410e-01 -1.586314e-01 3.196159e-21)
0.00437808    	(2.555649e+01 1.607696e+02 1.009654e-15)	(2.466699e+01 1.609275e+02 1.009654e-15)	(8.894929e-01 -1.578426e-01 6.075341e-22)
0.00445967    	(2.549141e+01 1.612216e+02 1.010006e-15)	(2.460676e+01 1.613785e+02 1.010009e-15)	(8.846507e-01 -1.569123e-01 -3.169971e-21)
0.00454064    	(2.576724e+01 1.619260e+02 1.007955e-15)	(2.488745e+01 1.620819e+02 1.007963e-15)	(8.797858e-01 -1.558456e-01 -8.023767e-21)
0.00462099    	(2.564466e+01 1.623832e+02 1.009231e-15)	(2.476972e+01 1.625379e+02 1.009245e-15)	(8.749333e-01 -1.546984e-01 -1.365716e-20)
0.00470087    	(2.584461e+01 1.631727e+02 1.009055e-15)	(2.497451e+01 1.633261e+02 1.009075e-15)	(8.700985e-01 -1.534218e-01 -1.984390e-20)
0.00478036    	(2.630831e+01 1.643672e+02 1.008310e-15)	(2.544302e+01 1.645193e+02 1.008336e-15)	(8.652845e-01 -1.520684e-01 -2.630009e-20)
0.00485951    	(2.621148e+01 1.648964e+02 1.010097e-15)	(2.535091e+01 1.650471e+02 1.010129e-15)	(8.605787e-01 -1.506763e-01 -3.240146e-20)
0.00493833    	(2.652141e+01 1.660795e+02 1.011748e-15)	(2.566548e+01 1.662287e+02 1.011786e-15)	(8.559367e-01 -1.491892e-01 -3.775535e-20)
0.00501696    	(2.693450e+01 1.671638e+02 1.011877e-15)	(2.608315e+01 1.673114e+02 1.011919e-15)	(8.513497e-01 -1.476301e-01 -4.214902e-20)
0.00509546    	(2.691485e+01 1.678267e+02 1.014141e-15)	(2.606792e+01 1.679727e+02 1.014187e-15)	(8.469264e-01 -1.460687e-01 -4.572508e-20)
0.00517383    	(2.707510e+01 1.686497e+02 1.016180e-15)	(2.623248e+01 1.687942e+02 1.016229e-15)	(8.426239e-01 -1.445014e-01 -4.875679e-20)
0.0052522     	(2.729499e+01 1.697311e+02 1.018619e-15)	(2.645664e+01 1.698740e+02 1.018670e-15)	(8.383509e-01 -1.428757e-01 -5.144936e-20)
0.00533063    	(2.745962e+01 1.702850e+02 1.018757e-15)	(2.662549e+01 1.704263e+02 1.018811e-15)	(8.341236e-01 -1.412378e-01 -5.406902e-20)
0.00540913    	(2.742218e+01 1.707951e+02 1.020860e-15)	(2.659216e+01 1.709347e+02 1.020917e-15)	(8.300202e-01 -1.395955e-01 -5.673969e-20)
0.00548769    	(2.761972e+01 1.715318e+02 1.021404e-15)	(2.679371e+01 1.716698e+02 1.021463e-15)	(8.260100e-01 -1.379893e-01 -5.951185e-20)
0.00556639    	(2.788823e+01 1.725037e+02 1.022620e-15)	(2.706637e+01 1.726400e+02 1.022682e-15)	(8.218592e-01 -1.362940e-01 -6.223632e-20)
0.00564528    	(2.807771e+01 1.731341e+02 1.022209e-15)	(2.725991e+01 1.732687e+02 1.022274e-15)	(8.178027e-01 -1.346180e-01 -6.503318e-20)
0.00572437    	(2.804573e+01 1.737038e+02 1.022956e-15)	(2.723182e+01 1.738368e+02 1.023024e-15)	(8.139158e-01 -1.330010e-01 -6.795776e-20)
0.00580366    	(2.836331e+01 1.747225e+02 1.023530e-15)	(2.755325e+01 1.748539e+02 1.023600e-15)	(8.100533e-01 -1.313988e-01 -7.091799e-20)
0.00588322    	(2.866717e+01 1.758903e+02 1.024988e-15)	(2.786101e+01 1.760201e+02 1.025061e-15)	(8.061605e-01 -1.297806e-01 -7.370748e-20)
0.00596304    	(2.886338e+01 1.765571e+02 1.023874e-15)	(2.806110e+01 1.766853e+02 1.023950e-15)	(8.022813e-01 -1.281522e-01 -7.630278e-20)
0.00604314    	(2.904936e+01 1.776071e+02 1.024164e-15)	(2.825076e+01 1.777337e+02 1.024243e-15)	(7.985957e-01 -1.266232e-01 -7.863895e-20)
0.00612352    	(2.942991e+01 1.786160e+02 1.023864e-15)	(2.863489e+01 1.787412e+02 1.023945e-15)	(7.950160e-01 -1.251619e-01 -8.013302e-20)
0.00620424    	(2.982569e+01 1.800049e+02 1.025907e-15)	(2.903423e+01 1.801287e+02 1.025988e-15)	(7.914656e-01 -1.237237e-01 -8.073991e-20)
0.0062853     	(3.007319e+01 1.808575e+02 1.026120e-15)	(2.928520e+01 1.809799e+02 1.026200e-15)	(7.879943e-01 -1.223518e-01 -8.023297e-20)
0.00636672    	(3.042244e+01 1.821443e+02 1.028605e-15)	(2.963784e+01 1.822654e+02 1.028683e-15)	(7.846051e-01 -1.210683e-01 -7.849829e-20)
0.0064485     	(3.104185e+01 1.838071e+02 1.031308e-15)	(3.026052e+01 1.839270e+02 1.031385e-15)	(7.813272e-01 -1.198586e-01 -7.635900e-20)
0.00653063    	(3.160713e+01 1.854557e+02 1.035342e-15)	(3.082896e+01 1.855744e+02 1.035416e-15)	(7.781764e-01 -1.187236e-01 -7.417584e-20)
0.0066132     	(3.186276e+01 1.865432e+02 1.039117e-15)	(3.108765e+01 1.866609e+02 1.039189e-15)	(7.751115e-01 -1.176894e-01 -7.198874e-20)
0.0066957     	(3.244680e+01 1.881206e+02 1.042541e-15)	(3.167463e+01 1.882374e+02 1.042611e-15)	(7.721700e-01 -1.167439e-01 -7.039090e-20)
0.00677798    	(3.298196e+01 1.896913e+02 1.048592e-15)	(3.221264e+01 1.898071e+02 1.048661e-15)	(7.693220e-01 -1.158381e-01 -6.914629e-20)
0.00686004    	(3.335649e+01 1.910272e+02 1.054486e-15)	(3.258994e+01 1.911421e+02 1.054554e-15)	(7.665569e-01 -1.149812e-01 -6.767461e-20)
0.00694189    	(3.380969e+01 1.924061e+02 1.059831e-15)	(3.304578e+01 1.925203e+02 1.059898e-15)	(7.639123e-01 -1.142048e-01 -6.616228e-20)
0.00702359    	(3.435451e+01 1.940481e+02 1.066603e-15)	(3.359324e+01 1.941616e+02 1.066668e-15)	(7.612727e-01 -1.134365e-01 -6.436645e-20)
0.00710508    	(3.487949e+01 1.956401e+02 1.075791e-15)	(3.412086e+01 1.957527e+02 1.075852e-15)	(7.586323e-01 -1.126756e-01 -6.159845e-20)
0.00718649    	(3.523354e+01 1.969552e+02 1.085671e-15)	(3.447754e+01 1.970672e+02 1.085729e-15)	(7.560072e-01 -1.119667e-01 -5.811535e-20)
0.00726769    	(3.578595e+01 1.984448e+02 1.094602e-15)	(3.503264e+01 1.985561e+02 1.094657e-15)	(7.533074e-01 -1.112733e-01 -5.428206e-20)
0.00734875    	(3.635568e+01 2.002801e+02 1.106671e-15)	(3.560515e+01 2.003907e+02 1.106721e-15)	(7.505304e-01 -1.105595e-01 -4.994297e-20)
0.00742967    	(3.689298e+01 2.018715e+02 1.117538e-15)	(3.614534e+01 2.019813e+02 1.117584e-15)	(7.476340e-01 -1.098072e-01 -4.505016e-20)
0.00751045    	(3.715891e+01 2.030536e+02 1.128613e-15)	(3.641418e+01 2.031628e+02 1.128653e-15)	(7.447256e-01 -1.091202e-01 -4.039431e-20)
0.00759108    	(3.776255e+01 2.047373e+02 1.137892e-15)	(3.702076e+01 2.048458e+02 1.137928e-15)	(7.417882e-01 -1.084435e-01 -3.579963e-20)
0.00767165    	(3.833702e+01 2.064313e+02 1.146721e-15)	(3.759823e+01 2.065390e+02 1.146752e-15)	(7.387895e-01 -1.077538e-01 -3.081911e-20)
0.00775215    	(3.849340e+01 2.072833e+02 1.156586e-15)	(3.775769e+01 2.073904e+02 1.156611e-15)	(7.357111e-01 -1.070664e-01 -2.554510e-20)
0.0078325     	(3.877734e+01 2.085456e+02 1.166455e-15)	(3.804465e+01 2.086521e+02 1.166475e-15)	(7.326964e-01 -1.064361e-01 -1.998894e-20)
0.00791286    	(3.925843e+01 2.098020e+02 1.173530e-15)	(3.852876e+01 2.099078e+02 1.173544e-15)	(7.296707e-01 -1.058143e-01 -1.391309e-20)
0.00799307    	(3.981940e+01 2.114382e+02 1.181261e-15)	(3.909282e+01 2.115434e+02 1.181268e-15)	(7.265881e-01 -1.051670e-01 -7.336130e-21)
0.00807315    	(3.996016e+01 2.123049e+02 1.190968e-15)	(3.923670e+01 2.124094e+02 1.190968e-15)	(7.234544e-01 -1.045031e-01 -3.733600e-22)
0.00815315    	(4.041104e+01 2.137110e+02 1.198777e-15)	(3.969062e+01 2.138149e+02 1.198770e-15)	(7.204193e-01 -1.038844e-01 7.026012e-21)
0.00823309    	(4.101277e+01 2.152804e+02 1.205134e-15)	(4.029533e+01 2.153836e+02 1.205119e-15)	(7.174351e-01 -1.032753e-01 1.479819e-20)
0.00831289    	(4.155130e+01 2.167160e+02 1.210611e-15)	(4.083682e+01 2.168187e+02 1.210588e-15)	(7.144747e-01 -1.026498e-01 2.284294e-20)
0.00839268    	(4.163068e+01 2.174159e+02 1.217744e-15)	(4.091911e+01 2.175180e+02 1.217714e-15)	(7.115691e-01 -1.020339e-01 3.062352e-20)
0.00847241    	(4.207546e+01 2.187773e+02 1.222319e-15)	(4.136667e+01 2.188788e+02 1.222281e-15)	(7.087913e-01 -1.014885e-01 3.810965e-20)
0.00855207    	(4.251883e+01 2.200496e+02 1.225738e-15)	(4.181275e+01 2.201506e+02 1.225693e-15)	(7.060844e-01 -1.009623e-01 4.531746e-20)
0.00863173    	(4.310518e+01 2.214528e+02 1.227059e-15)	(4.240182e+01 2.215532e+02 1.227006e-15)	(7.033660e-01 -1.004192e-01 5.220724e-20)
0.00871139    	(4.327860e+01 2.223480e+02 1.229976e-15)	(4.257791e+01 2.224478e+02 1.229917e-15)	(7.006887e-01 -9.987311e-02 5.851981e-20)
0.00879098    	(4.359325e+01 2.235143e+02 1.232125e-15)	(4.289510e+01 2.236137e+02 1.232061e-15)	(6.981551e-01 -9.940743e-02 6.422542e-20)
0.00887056    	(4.410485e+01 2.248566e+02 1.231937e-15)	(4.340914e+01 2.249556e+02 1.231867e-15)	(6.957132e-01 -9.895398e-02 6.952450e-20)
0.00895008    	(4.461302e+01 2.261195e+02 1.231197e-15)	(4.391970e+01 2.262180e+02 1.231123e-15)	(6.933176e-01 -9.847154e-02 7.441679e-20)
0.00902953    	(4.488854e+01 2.271745e+02 1.231100e-15)	(4.419762e+01 2.272725e+02 1.231021e-15)	(6.909204e-01 -9.800524e-02 7.888773e-20)
0.00910892    	(4.499357e+01 2.280410e+02 1.231901e-15)	(4.430492e+01 2.281385e+02 1.231819e-15)	(6.886522e-01 -9.758669e-02 8.270305e-20)
0.0091883     	(4.539875e+01 2.289713e+02 1.228927e-15)	(4.471231e+01 2.290685e+02 1.228841e-15)	(6.864378e-01 -9.717473e-02 8.621849e-20)
0.00926761    	(4.588911e+01 2.302554e+02 1.226206e-15)	(4.520489e+01 2.303522e+02 1.226117e-15)	(6.842243e-01 -9.674488e-02 8.925753e-20)
0.00934692    	(4.639826e+01 2.314917e+02 1.221309e-15)	(4.571634e+01 2.315880e+02 1.221217e-15)	(6.819223e-01 -9.632122e-02 9.158653e-20)
0.00942616    	(4.655500e+01 2.324149e+02 1.218931e-15)	(4.587532e+01 2.325109e+02 1.218837e-15)	(6.796795e-01 -9.590888e-02 9.338305e-20)
0.0095054     	(4.706836e+01 2.335301e+02 1.212226e-15)	(4.639089e+01 2.336256e+02 1.212131e-15)	(6.774679e-01 -9.549099e-02 9.468338e-20)
0.00958465    	(4.758275e+01 2.347609e+02 1.203889e-15)	(4.690748e+01 2.348560e+02 1.203794e-15)	(6.752683e-01 -9.505783e-02 9.502929e-20)
0.00966389    	(4.806801e+01 2.358076e+02 1.193423e-15)	(4.739497e+01 2.359022e+02 1.193329e-15)	(6.730421e-01 -9.462251e-02 9.433419e-20)
0.00974313    	(4.817967e+01 2.365410e+02 1.185514e-15)	(4.750878e+01 2.366352e+02 1.185421e-15)	(6.708905e-01 -9.420428e-02 9.309293e-20)
0.00982237    	(4.856840e+01 2.372930e+02 1.171712e-15)	(4.789962e+01 2.373868e+02 1.171621e-15)	(6.687795e-01 -9.379305e-02 9.169980e-20)
0.00990161    	(4.900513e+01 2.384279e+02 1.157237e-15)	(4.833846e+01 2.385213e+02 1.157147e-15)	(6.666689e-01 -9.338908e-02 8.980552e-20)
0.00998086    	(4.954489e+01 2.395091e+02 1.139971e-15)	(4.888040e+01 2.396021e+02 1.139884e-15)	(6.644935e-01 -9.299683e-02 8.754140e-20)
0.0100601     	(4.959259e+01 2.401363e+02 1.126557e-15)	(4.893029e+01 2.402289e+02 1.126472e-15)	(6.623066e-01 -9.260319e-02 8.511768e-20)
0.0101394     	(4.992996e+01 2.407795e+02 1.104798e-15)	(4.926984e+01 2.408717e+02 1.104715e-15)	(6.601187e-01 -9.223041e-02 8.310514e-20)
0.0102187     	(5.032466e+01 2.417501e+02 1.083403e-15)	(4.966676e+01 2.418420e+02 1.083322e-15)	(6.578984e-01 -9.186196e-02 8.147570e-20)
0.010298      	(5.083558e+01 2.427649e+02 1.060452e-15)	(5.017995e+01 2.428564e+02 1.060372e-15)	(6.556324e-01 -9.151647e-02 8.024247e-20)
0.0103774     	(5.089959e+01 2.433025e+02 1.041450e-15)	(5.024622e+01 2.433937e+02 1.041371e-15)	(6.533734e-01 -9.116665e-02 7.924561e-20)
0.0104568     	(5.106147e+01 2.436574e+02 1.009105e-15)	(5.041027e+01 2.437482e+02 1.009026e-15)	(6.511915e-01 -9.082020e-02 7.858910e-20)
0.0105363     	(5.130317e+01 2.444124e+02 9.821113e-16)	(5.065411e+01 2.445028e+02 9.820333e-16)	(6.490636e-01 -9.046559e-02 7.798545e-20)
0.0106157     	(5.211586e+01 2.465570e+02 9.561053e-16)	(5.146890e+01 2.466472e+02 9.560274e-16)	(6.469647e-01 -9.015999e-02 7.785493e-20)
0.0106952     	(5.225840e+01 2.467669e+02 9.355040e-16)	(5.161356e+01 2.468568e+02 9.354256e-16)	(6.448320e-01 -8.985997e-02 7.835784e-20)
0.0107748     	(5.215418e+01 2.468692e+02 9.109297e-16)	(5.151141e+01 2.469588e+02 9.108502e-16)	(6.427711e-01 -8.954006e-02 7.947351e-20)
0.0108543     	(5.194229e+01 2.461469e+02 8.870855e-16)	(5.130155e+01 2.462361e+02 8.870048e-16)	(6.407446e-01 -8.917143e-02 8.068941e-20)
0.010934      	(5.234319e+01 2.465956e+02 8.621063e-16)	(5.170439e+01 2.466844e+02 8.620240e-16)	(6.387976e-01 -8.886437e-02 8.231139e-20)
0.0110137     	(5.215379e+01 2.450828e+02 8.377044e-16)	(5.151694e+01 2.451713e+02 8.376204e-16)	(6.368519e-01 -8.854144e-02 8.409876e-20)
0.0110936     	(5.183652e+01 2.450874e+02 8.280345e-16)	(5.120147e+01 2.451756e+02 8.279466e-16)	(6.350469e-01 -8.823260e-02 8.793770e-20)
0.0111734     	(5.159016e+01 2.443999e+02 8.131961e-16)	(5.095687e+01 2.444878e+02 8.131043e-16)	(6.332928e-01 -8.788097e-02 9.181372e-20)
0.0112534     	(5.195912e+01 2.444867e+02 7.969314e-16)	(5.132752e+01 2.445743e+02 7.968357e-16)	(6.315991e-01 -8.761646e-02 9.565531e-20)
0.0113335     	(5.217475e+01 2.442918e+02 7.852563e-16)	(5.154481e+01 2.443792e+02 7.851565e-16)	(6.299345e-01 -8.739822e-02 9.975300e-20)
0.0114137     	(5.158458e+01 2.433046e+02 7.878103e-16)	(5.095625e+01 2.433918e+02 7.877055e-16)	(6.283311e-01 -8.721584e-02 1.047764e-19)
0.011494      	(5.102785e+01 2.416364e+02 7.887627e-16)	(5.040108e+01 2.417234e+02 7.886522e-16)	(6.267692e-01 -8.702520e-02 1.104710e-19)
0.0115744     	(5.111007e+01 2.405773e+02 7.856656e-16)	(5.048487e+01 2.406642e+02 7.855498e-16)	(6.252054e-01 -8.689446e-02 1.158309e-19)
0.0116549     	(5.112451e+01 2.393921e+02 7.889077e-16)	(5.050082e+01 2.394789e+02 7.887861e-16)	(6.236867e-01 -8.686027e-02 1.215314e-19)
0.0117356     	(5.048282e+01 2.373028e+02 7.978366e-16)	(4.986060e+01 2.373896e+02 7.977090e-16)	(6.222142e-01 -8.681880e-02 1.275409e-19)
0.0118164     	(4.937842e+01 2.348497e+02 8.098782e-16)	(4.875756e+01 2.349365e+02 8.097449e-16)	(6.208681e-01 -8.676109e-02 1.332549e-19)
0.0118974     	(4.922197e+01 2.334973e+02 8.218246e-16)	(4.860241e+01 2.335840e+02 8.216854e-16)	(6.195555e-01 -8.670871e-02 1.391756e-19)
0.0119785     	(4.895959e+01 2.309825e+02 8.290942e-16)	(4.834134e+01 2.310692e+02 8.289487e-16)	(6.182491e-01 -8.670867e-02 1.454586e-19)
0.0120596     	(4.836551e+01 2.280315e+02 8.385032e-16)	(4.774857e+01 2.281182e+02 8.383510e-16)	(6.169400e-01 -8.669663e-02 1.521849e-19)
0.0121407     	(4.722553e+01 2.251556e+02 8.556041e-16)	(4.660988e+01 2.252422e+02 8.554450e-16)	(6.156508e-01 -8.664698e-02 1.591172e-19)
0.0122217     	(4.697122e+01 2.231727e+02 8.647847e-16)	(4.635680e+01 2.232594e+02 8.646184e-16)	(6.144236e-01 -8.664182e-02 1.663463e-19)
0.0123027     	(4.682863e+01 2.212790e+02 8.751724e-16)	(4.621544e+01 2.213657e+02 8.749985e-16)	(6.131839e-01 -8.670357e-02 1.739924e-19)
0.0123837     	(4.642671e+01 2.185919e+02 8.830601e-16)	(4.581481e+01 2.186787e+02 8.828785e-16)	(6.119073e-01 -8.679253e-02 1.816410e-19)
0.0124645     	(4.547025e+01 2.148953e+02 8.911006e-16)	(4.485963e+01 2.149821e+02 8.909120e-16)	(6.106226e-01 -8.687244e-02 1.886240e-19)
0.0125453     	(4.484721e+01 2.128513e+02 9.039283e-16)	(4.423780e+01 2.129382e+02 9.037334e-16)	(6.094029e-01 -8.696408e-02 1.948446e-19)
0.0126259     	(4.476713e+01 2.112571e+02 9.121284e-16)	(4.415896e+01 2.113442e+02 9.119279e-16)	(6.081623e-01 -8.707104e-02 2.005831e-19)
0.0127065     	(4.471543e+01 2.105986e+02 9.279616e-16)	(4.410852e+01 2.106858e+02 9.277566e-16)	(6.069059e-01 -8.717018e-02 2.050520e-19)
0.0127871     	(4.440853e+01 2.088650e+02 9.380988e-16)	(4.380290e+01 2.089523e+02 9.378910e-16)	(6.056360e-01 -8.726400e-02 2.077614e-19)
0.0128676     	(4.376730e+01 2.075863e+02 9.524832e-16)	(4.316292e+01 2.076736e+02 9.522749e-16)	(6.043860e-01 -8.732858e-02 2.082643e-19)
0.0129481     	(4.395801e+01 2.070558e+02 9.603250e-16)	(4.335483e+01 2.071432e+02 9.601172e-16)	(6.031825e-01 -8.743352e-02 2.078169e-19)
0.0130285     	(4.393294e+01 2.067507e+02 9.718514e-16)	(4.333097e+01 2.068382e+02 9.716458e-16)	(6.019756e-01 -8.752791e-02 2.055504e-19)
0.0131089     	(4.403110e+01 2.062939e+02 9.826585e-16)	(4.343042e+01 2.063816e+02 9.824574e-16)	(6.006861e-01 -8.761459e-02 2.011087e-19)
0.0131893     	(4.379075e+01 2.060429e+02 9.959646e-16)	(4.319141e+01 2.061305e+02 9.957704e-16)	(5.993427e-01 -8.765646e-02 1.942037e-19)
0.0132696     	(4.400956e+01 2.064649e+02 1.001511e-15)	(4.341153e+01 2.065526e+02 1.001325e-15)	(5.980280e-01 -8.772648e-02 1.857092e-19)
0.01335       	(4.421026e+01 2.064433e+02 1.009713e-15)	(4.361355e+01 2.065311e+02 1.009537e-15)	(5.967075e-01 -8.780284e-02 1.757212e-19)
0.0134303     	(4.436217e+01 2.075451e+02 1.019142e-15)	(4.376684e+01 2.076329e+02 1.018978e-15)	(5.953230e-01 -8.784423e-02 1.638351e-19)
0.0135106     	(4.451508e+01 2.078091e+02 1.026226e-15)	(4.392126e+01 2.078969e+02 1.026075e-15)	(5.938142e-01 -8.787918e-02 1.502835e-19)
0.0135909     	(4.436330e+01 2.082017e+02 1.036899e-15)	(4.377105e+01 2.082895e+02 1.036763e-15)	(5.922496e-01 -8.786259e-02 1.358775e-19)
0.0136713     	(4.460743e+01 2.078409e+02 1.039476e-15)	(4.401672e+01 2.079288e+02 1.039355e-15)	(5.907114e-01 -8.787663e-02 1.206490e-19)
0.0137516     	(4.459596e+01 2.082358e+02 1.051327e-15)	(4.400679e+01 2.083237e+02 1.051222e-15)	(5.891723e-01 -8.787185e-02 1.049841e-19)
0.0138319     	(4.480865e+01 2.093253e+02 1.061171e-15)	(4.422101e+01 2.094131e+02 1.061082e-15)	(5.876417e-01 -8.784423e-02 8.922993e-20)
0.0139122     	(4.502777e+01 2.107601e+02 1.071569e-15)	(4.444176e+01 2.108479e+02 1.071495e-15)	(5.860093e-01 -8.778700e-02 7.387665e-20)
0.0139924     	(4.530854e+01 2.118368e+02 1.075359e-15)	(4.472418e+01 2.119245e+02 1.075300e-15)	(5.843613e-01 -8.770878e-02 5.900799e-20)
0.0140726     	(4.575984e+01 2.133260e+02 1.080828e-15)	(4.517716e+01 2.134136e+02 1.080783e-15)	(5.826816e-01 -8.762577e-02 4.511915e-20)
0.0141526     	(4.614823e+01 2.153889e+02 1.091542e-15)	(4.556726e+01 2.154764e+02 1.091510e-15)	(5.809737e-01 -8.751177e-02 3.262705e-20)
0.0142327     	(4.658569e+01 2.176288e+02 1.104236e-15)	(4.600646e+01 2.177162e+02 1.104215e-15)	(5.792244e-01 -8.736558e-02 2.098612e-20)
0.0143127     	(4.709539e+01 2.206945e+02 1.117313e-15)	(4.651800e+01 2.207817e+02 1.117303e-15)	(5.773944e-01 -8.719628e-02 1.042352e-20)
0.0143927     	(4.745770e+01 2.214133e+02 1.126493e-15)	(4.688213e+01 2.215003e+02 1.126491e-15)	(5.755666e-01 -8.703929e-02 1.417620e-21)
0.0144726     	(4.786182e+01 2.226501e+02 1.133956e-15)	(4.728811e+01 2.227370e+02 1.133961e-15)	(5.737078e-01 -8.687961e-02 -5.591231e-21)
0.0145525     	(4.835978e+01 2.247523e+02 1.146149e-15)	(4.778800e+01 2.248390e+02 1.146159e-15)	(5.717737e-01 -8.670247e-02 -1.016461e-20)
0.0146324     	(4.896981e+01 2.276546e+02 1.165135e-15)	(4.839992e+01 2.277411e+02 1.165149e-15)	(5.698968e-01 -8.649097e-02 -1.477406e-20)
0.0147122     	(4.960145e+01 2.308076e+02 1.183673e-15)	(4.903345e+01 2.308939e+02 1.183693e-15)	(5.680013e-01 -8.626261e-02 -1.922125e-20)
0.0147921     	(5.034004e+01 2.334618e+02 1.210487e-15)	(4.977390e+01 2.335479e+02 1.210510e-15)	(5.661457e-01 -8.604675e-02 -2.286200e-20)
0.014872      	(5.101603e+01 2.361713e+02 1.232112e-15)	(5.045174e+01 2.362571e+02 1.232138e-15)	(5.642847e-01 -8.582347e-02 -2.610752e-20)
0.0149518     	(5.168514e+01 2.390231e+02 1.257975e-15)	(5.112273e+01 2.391087e+02 1.258002e-15)	(5.624078e-01 -8.559528e-02 -2.648026e-20)
0.0150317     	(5.243351e+01 2.426595e+02 1.290247e-15)	(5.187305e+01 2.427448e+02 1.290275e-15)	(5.604597e-01 -8.532244e-02 -2.808990e-20)
0.0151115     	(5.331778e+01 2.466961e+02 1.321492e-15)	(5.275931e+01 2.467811e+02 1.321522e-15)	(5.584672e-01 -8.503054e-02 -2.979480e-20)
0.0151915     	(5.411814e+01 2.499427e+02 1.351768e-15)	(5.356165e+01 2.500274e+02 1.351800e-15)	(5.564832e-01 -8.473436e-02 -3.172079e-20)
0.0152714     	(5.490884e+01 2.532301e+02 1.381611e-15)	(5.435442e+01 2.533145e+02 1.381646e-15)	(5.544152e-01 -8.440662e-02 -3.448198e-20)
0.0153513     	(5.565732e+01 2.565774e+02 1.414524e-15)	(5.510506e+01 2.566615e+02 1.414561e-15)	(5.522606e-01 -8.404328e-02 -3.768154e-20)
0.0154313     	(5.643500e+01 2.602084e+02 1.453443e-15)	(5.588501e+01 2.602921e+02 1.453483e-15)	(5.499979e-01 -8.364531e-02 -4.020562e-20)
0.0155113     	(5.738038e+01 2.640546e+02 1.483652e-15)	(5.683275e+01 2.641379e+02 1.483696e-15)	(5.476335e-01 -8.324768e-02 -4.428866e-20)
0.0155914     	(5.815955e+01 2.669752e+02 1.511638e-15)	(5.761436e+01 2.670580e+02 1.511685e-15)	(5.451991e-01 -8.284712e-02 -4.753596e-20)
0.0156715     	(5.891647e+01 2.700656e+02 1.539064e-15)	(5.837380e+01 2.701480e+02 1.539114e-15)	(5.426656e-01 -8.243107e-02 -5.067923e-20)
0.0157516     	(5.969555e+01 2.735751e+02 1.567959e-15)	(5.915551e+01 2.736571e+02 1.568013e-15)	(5.400334e-01 -8.198776e-02 -5.359471e-20)
0.0158317     	(6.046963e+01 2.771158e+02 1.597683e-15)	(5.993230e+01 2.771974e+02 1.597739e-15)	(5.373324e-01 -8.152462e-02 -5.623232e-20)
0.0159117     	(6.133844e+01 2.805063e+02 1.617588e-15)	(6.080385e+01 2.805874e+02 1.617648e-15)	(5.345902e-01 -8.105982e-02 -5.919936e-20)
0.0159917     	(6.208886e+01 2.831539e+02 1.639777e-15)	(6.155700e+01 2.832344e+02 1.639838e-15)	(5.318555e-01 -8.056369e-02 -6.124057e-20)
0.0160716     	(6.280129e+01 2.858373e+02 1.660769e-15)	(6.227219e+01 2.859174e+02 1.660831e-15)	(5.291065e-01 -8.002825e-02 -6.202380e-20)
0.0161516     	(6.352475e+01 2.888168e+02 1.681564e-15)	(6.299845e+01 2.888962e+02 1.681626e-15)	(5.262960e-01 -7.942133e-02 -6.199155e-20)
0.0162315     	(6.428798e+01 2.918280e+02 1.699412e-15)	(6.376456e+01 2.919067e+02 1.699473e-15)	(5.234156e-01 -7.876452e-02 -6.123711e-20)
0.0163114     	(6.506251e+01 2.946659e+02 1.716404e-15)	(6.454198e+01 2.947440e+02 1.716464e-15)	(5.205287e-01 -7.808862e-02 -5.981121e-20)
0.0163914     	(6.579072e+01 2.970060e+02 1.729863e-15)	(6.527307e+01 2.970834e+02 1.729921e-15)	(5.176525e-01 -7.737815e-02 -5.760183e-20)
0.0164713     	(6.646154e+01 2.992526e+02 1.743743e-15)	(6.594676e+01 2.993293e+02 1.743797e-15)	(5.147842e-01 -7.663452e-02 -5.447718e-20)
0.0165512     	(6.709023e+01 3.015799e+02 1.758498e-15)	(6.657831e+01 3.016557e+02 1.758549e-15)	(5.119160e-01 -7.584716e-02 -5.089697e-20)
0.0166311     	(6.780582e+01 3.041439e+02 1.770695e-15)	(6.729678e+01 3.042189e+02 1.770741e-15)	(5.090344e-01 -7.502942e-02 -4.679432e-20)