# Force       
# CofR        : (5.000000e+00 5.000000e-03 0.000000e+00)
#
# Time        	(total_x total_y total_z)	(pressure_x pressure_y pressure_z)	(viscous_x viscous_y viscous_z)
1.20005e-05   	(7.376689e+04 1.435026e+05 1.304006e-13)	(7.376603e+04 1.435026e+05 1.304007e-13)	(8.547824e-01 -7.888147e-02 -4.538626e-20)
2.64017e-05   	(2.405403e+03 3.828155e+03 1.206225e-15)	(2.404563e+03 3.828253e+03 1.206253e-15)	(8.401430e-01 -9.779175e-02 -2.766875e-20)
4.36833e-05   	(4.204605e+02 5.656720e+02 7.854837e-16)	(4.196191e+02 5.657792e+02 7.855045e-16)	(8.414403e-01 -1.072765e-01 -2.082095e-20)
6.44211e-05   	(1.400678e+02 2.847641e+02 3.598705e-16)	(1.392225e+02 2.848759e+02 3.598883e-16)	(8.453492e-01 -1.118284e-01 -1.775717e-20)
8.93055e-05   	(7.306465e+01 2.308509e+02 2.343626e-16)	(7.221433e+01 2.309658e+02 2.343793e-16)	(8.503215e-01 -1.148985e-01 -1.671054e-20)
0.000119165   	(6.428253e+01 2.285720e+02 2.074380e-16)	(6.342596e+01 2.286893e+02 2.074544e-16)	(8.565738e-01 -1.172892e-01 -1.636755e-20)
0.000154914   	(7.386477e+01 2.329903e+02 1.925575e-16)	(7.300010e+01 2.331095e+02 1.925739e-16)	(8.646700e-01 -1.192842e-01 -1.641183e-20)
0.00019655    	(8.362286e+01 2.399570e+02 1.878672e-16)	(8.274804e+01 2.400781e+02 1.878830e-16)	(8.748149e-01 -1.210460e-01 -1.577581e-20)
0.000244076   	(9.012383e+01 2.453363e+02 1.997755e-16)	(8.923738e+01 2.454589e+02 1.997897e-16)	(8.864529e-01 -1.225996e-01 -1.412775e-20)
0.000297478   	(9.552166e+01 2.538134e+02 2.262752e-16)	(9.462235e+01 2.539376e+02 2.262872e-16)	(8.993020e-01 -1.241865e-01 -1.207845e-20)
0.000356058   	(1.012418e+02 2.656420e+02 2.580798e-16)	(1.003292e+02 2.657680e+02 2.580894e-16)	(9.125901e-01 -1.260203e-01 -9.501345e-21)
0.000414397   	(1.053399e+02 2.765386e+02 2.805257e-16)	(1.044150e+02 2.766669e+02 2.805323e-16)	(9.248562e-01 -1.282846e-01 -6.578248e-21)
0.000472533   	(1.067101e+02 2.807297e+02 2.890963e-16)	(1.057740e+02 2.808610e+02 2.891001e-16)	(9.361112e-01 -1.312334e-01 -3.776371e-21)
0.000527949   	(1.035264e+02 2.710049e+02 2.866275e-16)	(1.025803e+02 2.711399e+02 2.866290e-16)	(9.461793e-01 -1.349751e-01 -1.436730e-21)
0.000580663   	(9.998030e+01 2.612111e+02 2.932931e-16)	(9.902504e+01 2.613505e+02 2.932926e-16)	(9.552585e-01 -1.393729e-01 4.947929e-22)
0.000631387   	(9.726396e+01 2.551178e+02 3.001486e-16)	(9.630038e+01 2.552620e+02 3.001467e-16)	(9.635754e-01 -1.441876e-01 1.972457e-21)
0.000680604   	(9.464113e+01 2.489373e+02 2.956530e-16)	(9.366984e+01 2.490866e+02 2.956501e-16)	(9.712860e-01 -1.492878e-01 2.892470e-21)
0.000728585   	(9.213378e+01 2.421354e+02 2.797276e-16)	(9.115531e+01 2.422899e+02 2.797246e-16)	(9.784762e-01 -1.545457e-01 3.093054e-21)
0.000775812   	(9.007557e+01 2.361254e+02 2.570670e-16)	(8.909032e+01 2.362853e+02 2.570644e-16)	(9.852564e-01 -1.598956e-01 2.551352e-21)
0.000822638   	(8.830498e+01 2.312888e+02 2.328582e-16)	(8.731328e+01 2.314541e+02 2.328569e-16)	(9.916994e-01 -1.652953e-01 1.320541e-21)
0.000869178   	(8.704477e+01 2.270246e+02 2.202239e-16)	(8.604689e+01 2.271953e+02 2.202245e-16)	(9.978747e-01 -1.707012e-01 -6.213930e-22)
0.00091574    	(8.583222e+01 2.237259e+02 2.100552e-16)	(8.482837e+01 2.239020e+02 2.100582e-16)	(1.003846e+00 -1.761168e-01 -2.955109e-21)
0.000962611   	(8.479586e+01 2.207960e+02 2.042513e-16)	(8.378619e+01 2.209776e+02 2.042567e-16)	(1.009674e+00 -1.815503e-01 -5.405284e-21)
0.00100997    	(8.360104e+01 2.178037e+02 2.016622e-16)	(8.258561e+01 2.179907e+02 2.016701e-16)	(1.015432e+00 -1.870404e-01 -7.937972e-21)
0.00105782    	(8.238843e+01 2.148386e+02 2.029386e-16)	(8.136724e+01 2.150313e+02 2.029490e-16)	(1.021196e+00 -1.926379e-01 -1.046920e-20)
0.00110491    	(8.086105e+01 2.116097e+02 2.075914e-16)	(7.983413e+01 2.118080e+02 2.076043e-16)	(1.026920e+00 -1.982785e-01 -1.294986e-20)
0.00115147    	(7.898396e+01 2.081985e+02 2.163552e-16)	(7.795126e+01 2.084025e+02 2.163705e-16)	(1.032705e+00 -2.040323e-01 -1.529609e-20)
0.00119771    	(7.640050e+01 2.034991e+02 2.283373e-16)	(7.536183e+01 2.037091e+02 2.283540e-16)	(1.038675e+00 -2.099972e-01 -1.664708e-20)
0.00124366    	(7.200123e+01 1.941442e+02 2.415253e-16)	(7.095635e+01 1.943605e+02 2.415406e-16)	(1.044876e+00 -2.163221e-01 -1.535977e-20)
0.00128953    	(6.590640e+01 1.829152e+02 2.592719e-16)	(6.485468e+01 1.831388e+02 2.592816e-16)	(1.051717e+00 -2.235832e-01 -9.730747e-21)
0.0013354     	(5.849890e+01 1.696526e+02 2.828549e-16)	(5.744894e+01 1.698815e+02 2.828569e-16)	(1.049962e+00 -2.289565e-01 -2.002864e-21)
0.00138138    	(5.040405e+01 1.560945e+02 3.187813e-16)	(4.935597e+01 1.563282e+02 3.187767e-16)	(1.048076e+00 -2.337783e-01 4.651935e-21)
0.00142763    	(4.140600e+01 1.485043e+02 3.642246e-16)	(4.035998e+01 1.487418e+02 3.642172e-16)	(1.046020e+00 -2.374876e-01 7.355687e-21)
0.00147424    	(2.752902e+01 1.479241e+02 4.011978e-16)	(2.648557e+01 1.481644e+02 4.011907e-16)	(1.043452e+00 -2.402589e-01 7.077697e-21)
0.00152131    	(3.006408e+00 1.730555e+02 4.373490e-16)	(1.967025e+00 1.732973e+02 4.373452e-16)	(1.039383e+00 -2.417761e-01 3.873746e-21)
0.001569      	(-6.137591e+01 2.155515e+02 3.575543e-16)	(-6.240765e+01 2.157927e+02 3.575599e-16)	(1.031735e+00 -2.411777e-01 -5.544484e-21)
0.00161747    	(-1.500433e+02 1.203380e+02 1.740343e-16)	(-1.510645e+02 1.205766e+02 1.740661e-16)	(1.021200e+00 -2.385311e-01 -3.187440e-20)
0.00166685    	(-9.990522e+01 4.923564e+01 2.540734e-16)	(-1.009189e+02 4.947265e+01 2.541261e-16)	(1.013722e+00 -2.370138e-01 -5.273847e-20)
0.00171677    	(8.015412e-01 1.292342e+02 3.097376e-16)	(-2.068904e-01 1.294709e+02 3.097978e-16)	(1.008432e+00 -2.366968e-01 -6.022770e-20)
0.00176648    	(3.358881e+01 1.705827e+02 3.151368e-16)	(3.258563e+01 1.708193e+02 3.151989e-16)	(1.003186e+00 -2.366824e-01 -6.208387e-20)
0.00181637    	(3.630981e+01 1.784780e+02 3.130251e-16)	(3.531199e+01 1.787145e+02 3.130871e-16)	(9.978121e-01 -2.364947e-01 -6.205218e-20)
0.00186619    	(3.939950e+01 1.822331e+02 3.096434e-16)	(3.840701e+01 1.824692e+02 3.097045e-16)	(9.924918e-01 -2.361342e-01 -6.105883e-20)
0.00191626    	(3.943220e+01 1.825987e+02 3.023310e-16)	(3.844505e+01 1.828344e+02 3.023904e-16)	(9.871495e-01 -2.356358e-01 -5.941750e-20)
0.0019664     	(4.063540e+01 1.841204e+02 2.937402e-16)	(3.965354e+01 1.843555e+02 2.937976e-16)	(9.818567e-01 -2.350426e-01 -5.735466e-20)
0.00201675    	(4.160941e+01 1.860224e+02 2.853478e-16)	(4.063289e+01 1.862567e+02 2.854030e-16)	(9.765129e-01 -2.342711e-01 -5.518919e-20)
0.00206718    	(4.327533e+01 1.890030e+02 2.756959e-16)	(4.230426e+01 1.892363e+02 2.757491e-16)	(9.710728e-01 -2.333814e-01 -5.318216e-20)
0.00211771    	(4.490411e+01 1.922223e+02 2.652702e-16)	(4.393863e+01 1.924547e+02 2.653215e-16)	(9.654723e-01 -2.324300e-01 -5.134831e-20)
0.00216819    	(4.644661e+01 1.949827e+02 2.565873e-16)	(4.548687e+01 1.952141e+02 2.566369e-16)	(9.597434e-01 -2.314237e-01 -4.965329e-20)
0.00221862    	(4.770554e+01 1.974917e+02 2.478095e-16)	(4.675162e+01 1.977221e+02 2.478577e-16)	(9.539265e-01 -2.304198e-01 -4.819084e-20)
0.00226892    	(4.886004e+01 1.996324e+02 2.403192e-16)	(4.791199e+01 1.998619e+02 2.403661e-16)	(9.480433e-01 -2.294226e-01 -4.694301e-20)
0.00231894    	(4.972022e+01 2.013078e+02 2.354950e-16)	(4.877806e+01 2.015362e+02 2.355409e-16)	(9.421648e-01 -2.284011e-01 -4.588739e-20)
0.0023689     	(5.062294e+01 2.031239e+02 2.312841e-16)	(4.968673e+01 2.033513e+02 2.313294e-16)	(9.362175e-01 -2.273785e-01 -4.532217e-20)
0.00241869    	(5.113475e+01 2.043051e+02 2.271372e-16)	(5.020450e+01 2.045315e+02 2.271824e-16)	(9.302497e-01 -2.263717e-01 -4.523596e-20)
0.00246845    	(5.167796e+01 2.054297e+02 2.240523e-16)	(5.075373e+01 2.056551e+02 2.240979e-16)	(9.242294e-01 -2.253399e-01 -4.560087e-20)
0.00251814    	(5.209200e+01 2.064160e+02 2.211033e-16)	(5.117385e+01 2.066403e+02 2.211497e-16)	(9.181516e-01 -2.243080e-01 -4.636439e-20)
0.00256785    	(5.219252e+01 2.066772e+02 2.193798e-16)	(5.128044e+01 2.069005e+02 2.194273e-16)	(9.120810e-01 -2.232560e-01 -4.745328e-20)
0.00261756    	(5.232555e+01 2.069549e+02 2.174290e-16)	(5.141951e+01 2.071771e+02 2.174780e-16)	(9.060429e-01 -2.222172e-01 -4.890790e-20)
0.00266727    	(5.252699e+01 2.073948e+02 2.170168e-16)	(5.162694e+01 2.076159e+02 2.170673e-16)	(9.000423e-01 -2.211757e-01 -5.048350e-20)
0.00271708    	(5.267209e+01 2.079257e+02 2.162416e-16)	(5.177806e+01 2.081458e+02 2.162938e-16)	(8.940308e-01 -2.201095e-01 -5.214032e-20)
0.00276686    	(5.279447e+01 2.082718e+02 2.171174e-16)	(5.190641e+01 2.084908e+02 2.171711e-16)	(8.880559e-01 -2.190449e-01 -5.375247e-20)
0.00281686    	(5.270544e+01 2.084596e+02 2.181356e-16)	(5.182329e+01 2.086776e+02 2.181907e-16)	(8.821549e-01 -2.179882e-01 -5.504806e-20)
0.00286674    	(5.286747e+01 2.088966e+02 2.179777e-16)	(5.199117e+01 2.091135e+02 2.180334e-16)	(8.762994e-01 -2.169173e-01 -5.578002e-20)
0.00291679    	(5.297590e+01 2.091533e+02 2.183931e-16)	(5.210543e+01 2.093691e+02 2.184489e-16)	(8.704633e-01 -2.158042e-01 -5.572663e-20)
0.00296686    	(5.286529e+01 2.090054e+02 2.181581e-16)	(5.200062e+01 2.092200e+02 2.182129e-16)	(8.646690e-01 -2.146513e-01 -5.479095e-20)
0.003017      	(5.290180e+01 2.093115e+02 2.176497e-16)	(5.204288e+01 2.095250e+02 2.177025e-16)	(8.589251e-01 -2.134761e-01 -5.288587e-20)
0.00306725    	(5.321789e+01 2.100935e+02 2.149065e-16)	(5.236466e+01 2.103058e+02 2.149568e-16)	(8.532325e-01 -2.122697e-01 -5.025814e-20)
0.0031175     	(5.315794e+01 2.102702e+02 2.124618e-16)	(5.231035e+01 2.104812e+02 2.125089e-16)	(8.475872e-01 -2.110311e-01 -4.712037e-20)
0.00316786    	(5.332987e+01 2.106744e+02 2.081029e-16)	(5.248785e+01 2.108842e+02 2.081466e-16)	(8.420183e-01 -2.097898e-01 -4.373973e-20)
0.00321821    	(5.325431e+01 2.107491e+02 2.038679e-16)	(5.241777e+01 2.109576e+02 2.039084e-16)	(8.365414e-01 -2.085607e-01 -4.047442e-20)
0.00326857    	(5.339889e+01 2.111559e+02 1.972700e-16)	(5.256778e+01 2.113632e+02 1.973075e-16)	(8.311115e-01 -2.073291e-01 -3.749805e-20)
0.00331892    	(5.352524e+01 2.116956e+02 1.904461e-16)	(5.269946e+01 2.119017e+02 1.904809e-16)	(8.257857e-01 -2.060820e-01 -3.484241e-20)
0.00336933    	(5.351125e+01 2.119467e+02 1.850340e-16)	(5.269064e+01 2.121516e+02 1.850665e-16)	(8.206086e-01 -2.048727e-01 -3.256021e-20)
0.00341979    	(5.377541e+01 2.126817e+02 1.785147e-16)	(5.295985e+01 2.128854e+02 1.785449e-16)	(8.155607e-01 -2.036981e-01 -3.024984e-20)
0.0034703     	(5.396188e+01 2.131542e+02 1.709739e-16)	(5.315119e+01 2.133567e+02 1.710022e-16)	(8.106813e-01 -2.025307e-01 -2.823281e-20)
0.00352087    	(5.395034e+01 2.134033e+02 1.640445e-16)	(5.314433e+01 2.136047e+02 1.640712e-16)	(8.060118e-01 -2.014373e-01 -2.675656e-20)
0.00357146    	(5.417310e+01 2.140032e+02 1.556694e-16)	(5.337154e+01 2.142036e+02 1.556952e-16)	(8.015573e-01 -2.004097e-01 -2.589062e-20)
0.0036221     	(5.446491e+01 2.147713e+02 1.470677e-16)	(5.366766e+01 2.149707e+02 1.470934e-16)	(7.972493e-01 -1.994119e-01 -2.572459e-20)
0.00367278    	(5.444723e+01 2.151763e+02 1.383913e-16)	(5.365409e+01 2.153748e+02 1.384180e-16)	(7.931434e-01 -1.984536e-01 -2.665310e-20)
0.00372348    	(5.458132e+01 2.158062e+02 1.301310e-16)	(5.379201e+01 2.160038e+02 1.301597e-16)	(7.893143e-01 -1.975567e-01 -2.869606e-20)
0.00377423    	(5.478441e+01 2.163917e+02 1.218299e-16)	(5.399871e+01 2.165884e+02 1.218616e-16)	(7.856960e-01 -1.967113e-01 -3.162816e-20)
0.00382501    	(5.467571e+01 2.164433e+02 1.144759e-16)	(5.389346e+01 2.166392e+02 1.145112e-16)	(7.822500e-01 -1.958762e-01 -3.522431e-20)
0.00387584    	(5.453191e+01 2.165774e+02 1.092060e-16)	(5.375288e+01 2.167725e+02 1.092450e-16)	(7.790284e-01 -1.950794e-01 -3.904573e-20)
0.00392656    	(5.456617e+01 2.169827e+02 1.040188e-16)	(5.379018e+01 2.171771e+02 1.040617e-16)	(7.759947e-01 -1.943429e-01 -4.289600e-20)
0.00397665    	(5.449742e+01 2.173221e+02 9.966640e-17)	(5.372428e+01 2.175157e+02 9.971274e-17)	(7.731443e-01 -1.936482e-01 -4.633779e-20)
0.0040262     	(5.427861e+01 2.173182e+02 9.628121e-17)	(5.350814e+01 2.175112e+02 9.633044e-17)	(7.704724e-01 -1.929995e-01 -4.923274e-20)
0.00407534    	(5.431039e+01 2.176784e+02 9.545678e-17)	(5.354242e+01 2.178708e+02 9.550830e-17)	(7.679698e-01 -1.924051e-01 -5.151970e-20)
0.00412414    	(5.436196e+01 2.182098e+02 9.327029e-17)	(5.359640e+01 2.184016e+02 9.332318e-17)	(7.655587e-01 -1.918174e-01 -5.288708e-20)
0.00417263    	(5.438837e+01 2.186634e+02 8.957162e-17)	(5.362517e+01 2.188546e+02 8.962507e-17)	(7.632063e-01 -1.912687e-01 -5.344741e-20)
0.00422083    	(5.434277e+01 2.189343e+02 8.614550e-17)	(5.358181e+01 2.191251e+02 8.619872e-17)	(7.609590e-01 -1.907691e-01 -5.322385e-20)
0.0042688     	(5.455605e+01 2.197187e+02 8.406660e-17)	(5.379728e+01 2.199090e+02 8.411880e-17)	(7.587665e-01 -1.902942e-01 -5.219258e-20)
0.00431654    	(5.458113e+01 2.200611e+02 7.900269e-17)	(5.382454e+01 2.202510e+02 7.905323e-17)	(7.565906e-01 -1.898359e-01 -5.054024e-20)
0.00436412    	(5.462929e+01 2.203681e+02 7.260148e-17)	(5.387485e+01 2.205575e+02 7.264971e-17)	(7.544487e-01 -1.894003e-01 -4.822680e-20)
0.00441156    	(5.473023e+01 2.208097e+02 6.906587e-17)	(5.397791e+01 2.209987e+02 6.911125e-17)	(7.523268e-01 -1.889745e-01 -4.538625e-20)
0.00445895    	(5.479396e+01 2.212093e+02 6.564166e-17)	(5.404378e+01 2.213978e+02 6.568366e-17)	(7.501783e-01 -1.885471e-01 -4.200340e-20)
0.00450634    	(5.484211e+01 2.216231e+02 6.139029e-17)	(5.409412e+01 2.218112e+02 6.142865e-17)	(7.479905e-01 -1.881259e-01 -3.835911e-20)
0.0045538     	(5.480168e+01 2.217594e+02 5.830881e-17)	(5.405586e+01 2.219471e+02 5.834342e-17)	(7.458215e-01 -1.877015e-01 -3.460292e-20)
0.00460139    	(5.492427e+01 2.222279e+02 5.663617e-17)	(5.418065e+01 2.224151e+02 5.666668e-17)	(7.436154e-01 -1.872500e-01 -3.050996e-20)
0.00464916    	(5.492630e+01 2.224492e+02 5.725602e-17)	(5.418496e+01 2.226360e+02 5.728214e-17)	(7.413446e-01 -1.867600e-01 -2.611895e-20)
0.00469714    	(5.487235e+01 2.226547e+02 5.918817e-17)	(5.413328e+01 2.228409e+02 5.921009e-17)	(7.390686e-01 -1.862414e-01 -2.192754e-20)
0.0047454     	(5.497954e+01 2.231288e+02 6.299531e-17)	(5.424271e+01 2.233145e+02 6.301308e-17)	(7.368296e-01 -1.857031e-01 -1.777288e-20)
0.00479395    	(5.514126e+01 2.237956e+02 6.807965e-17)	(5.440669e+01 2.239807e+02 6.809349e-17)	(7.345773e-01 -1.851401e-01 -1.384302e-20)
0.00484282    	(5.514748e+01 2.240538e+02 7.445377e-17)	(5.441518e+01 2.242383e+02 7.446461e-17)	(7.323056e-01 -1.845445e-01 -1.084139e-20)
0.00489207    	(5.516836e+01 2.244584e+02 8.196283e-17)	(5.443829e+01 2.246423e+02 8.197103e-17)	(7.300657e-01 -1.839313e-01 -8.202800e-21)
0.0049411     	(5.535932e+01 2.250006e+02 8.979547e-17)	(5.463142e+01 2.251839e+02 8.980148e-17)	(7.278908e-01 -1.833105e-01 -6.005351e-21)
0.0049898     	(5.551731e+01 2.255357e+02 9.832502e-17)	(5.479153e+01 2.257184e+02 9.832931e-17)	(7.257808e-01 -1.826907e-01 -4.291811e-21)
0.00503825    	(5.559559e+01 2.259557e+02 1.064122e-16)	(5.487187e+01 2.261378e+02 1.064152e-16)	(7.237186e-01 -1.820588e-01 -3.018054e-21)
0.00508648    	(5.567984e+01 2.264314e+02 1.123989e-16)	(5.495811e+01 2.266129e+02 1.124009e-16)	(7.217392e-01 -1.814273e-01 -2.015812e-21)
0.00513448    	(5.597554e+01 2.270857e+02 1.177294e-16)	(5.525574e+01 2.272665e+02 1.177307e-16)	(7.198056e-01 -1.807996e-01 -1.298810e-21)
0.0051823     	(5.622891e+01 2.278275e+02 1.218822e-16)	(5.551102e+01 2.280076e+02 1.218828e-16)	(7.178900e-01 -1.801661e-01 -5.870771e-22)
0.00522995    	(5.636914e+01 2.282071e+02 1.244446e-16)	(5.565309e+01 2.283866e+02 1.244444e-16)	(7.160507e-01 -1.795327e-01 1.517248e-22)
0.00527745    	(5.665488e+01 2.290230e+02 1.246645e-16)	(5.594064e+01 2.292019e+02 1.246640e-16)	(7.142313e-01 -1.788845e-01 5.096816e-22)
0.00532484    	(5.698821e+01 2.297458e+02 1.246298e-16)	(5.627578e+01 2.299240e+02 1.246292e-16)	(7.124272e-01 -1.782340e-01 6.138217e-22)
0.0053721     	(5.736998e+01 2.306516e+02 1.229164e-16)	(5.665935e+01 2.308292e+02 1.229157e-16)	(7.106294e-01 -1.775794e-01 7.657300e-22)
0.0054193     	(5.762918e+01 2.313532e+02 1.207693e-16)	(5.692031e+01 2.315301e+02 1.207681e-16)	(7.088699e-01 -1.769376e-01 1.264025e-21)
0.00546642    	(5.795512e+01 2.321481e+02 1.165621e-16)	(5.724805e+01 2.323244e+02 1.165605e-16)	(7.070675e-01 -1.762817e-01 1.536296e-21)
0.0055135     	(5.836198e+01 2.329413e+02 1.126708e-16)	(5.765671e+01 2.331169e+02 1.126693e-16)	(7.052628e-01 -1.756126e-01 1.454077e-21)
0.00556058    	(5.850686e+01 2.334063e+02 1.080710e-16)	(5.780337e+01 2.335813e+02 1.080697e-16)	(7.034945e-01 -1.749550e-01 1.281520e-21)
0.00560768    	(5.892436e+01 2.343101e+02 1.037483e-16)	(5.822265e+01 2.344844e+02 1.037472e-16)	(7.017077e-01 -1.743105e-01 1.077889e-21)
0.00565481    	(5.918003e+01 2.350208e+02 9.827197e-17)	(5.848016e+01 2.351945e+02 9.827163e-17)	(6.998759e-01 -1.736426e-01 3.347711e-22)
0.00570198    	(5.940851e+01 2.356508e+02 9.324735e-17)	(5.871048e+01 2.358238e+02 9.324776e-17)	(6.980282e-01 -1.729600e-01 -4.067163e-22)
0.00574922    	(5.973741e+01 2.364183e+02 8.770194e-17)	(5.904121e+01 2.365906e+02 8.770311e-17)	(6.962026e-01 -1.723011e-01 -1.166883e-21)
0.00579654    	(6.022871e+01 2.375258e+02 8.320993e-17)	(5.953438e+01 2.376974e+02 8.321208e-17)	(6.943322e-01 -1.716452e-01 -2.149166e-21)
0.00584395    	(6.066475e+01 2.384574e+02 7.832430e-17)	(5.997233e+01 2.386284e+02 7.832730e-17)	(6.924230e-01 -1.709674e-01 -2.999736e-21)
0.00589145    	(6.083484e+01 2.390116e+02 7.253101e-17)	(6.014430e+01 2.391819e+02 7.253471e-17)	(6.905490e-01 -1.702867e-01 -3.692720e-21)
0.00593908    	(6.131658e+01 2.400593e+02 7.087185e-17)	(6.062791e+01 2.402289e+02 7.087554e-17)	(6.886719e-01 -1.696316e-01 -3.687277e-21)
0.0059868     	(6.177949e+01 2.410311e+02 7.089758e-17)	(6.109271e+01 2.412001e+02 7.089992e-17)	(6.867792e-01 -1.689801e-01 -2.338475e-21)
0.00603465    	(6.207129e+01 2.417013e+02 7.465985e-17)	(6.138640e+01 2.418696e+02 7.466049e-17)	(6.848922e-01 -1.683191e-01 -6.400904e-22)
0.00608264    	(6.253650e+01 2.426377e+02 8.342344e-17)	(6.185350e+01 2.428054e+02 8.342201e-17)	(6.830068e-01 -1.676557e-01 1.428666e-21)
0.00613075    	(6.284585e+01 2.433940e+02 9.522316e-17)	(6.216473e+01 2.435610e+02 9.521840e-17)	(6.811125e-01 -1.670130e-01 4.761650e-21)
0.00617901    	(6.323855e+01 2.442696e+02 1.124508e-16)	(6.255932e+01 2.444359e+02 1.124420e-16)	(6.792290e-01 -1.663627e-01 8.795500e-21)
0.00622742    	(6.355625e+01 2.449278e+02 1.365602e-16)	(6.287886e+01 2.450935e+02 1.365475e-16)	(6.773848e-01 -1.657136e-01 1.268419e-20)
0.00627596    	(6.399420e+01 2.457613e+02 1.626796e-16)	(6.331867e+01 2.459263e+02 1.626626e-16)	(6.755299e-01 -1.650588e-01 1.694952e-20)
0.00632442    	(6.422204e+01 2.464646e+02 1.889534e-16)	(6.354837e+01 2.466290e+02 1.889323e-16)	(6.736770e-01 -1.644068e-01 2.109764e-20)
0.00637278    	(6.438734e+01 2.468835e+02 2.188000e-16)	(6.371547e+01 2.470472e+02 2.187756e-16)	(6.718678e-01 -1.637568e-01 2.431538e-20)
0.00642109    	(6.498059e+01 2.480829e+02 2.464975e-16)	(6.431055e+01 2.482460e+02 2.464700e-16)	(6.700416e-01 -1.631128e-01 2.752769e-20)
0.00646933    	(6.524375e+01 2.487330e+02 2.701268e-16)	(6.457557e+01 2.488955e+02 2.700968e-16)	(6.681844e-01 -1.624535e-01 2.992058e-20)
0.00651747    	(6.553847e+01 2.494022e+02 2.877293e-16)	(6.487215e+01 2.495640e+02 2.876980e-16)	(6.663172e-01 -1.618015e-01 3.124787e-20)
0.00656551    	(6.601959e+01 2.504555e+02 2.982436e-16)	(6.535512e+01 2.506167e+02 2.982117e-16)	(6.644684e-01 -1.611740e-01 3.190827e-20)
0.00661347    	(6.640585e+01 2.512789e+02 3.031252e-16)	(6.574326e+01 2.514394e+02 3.030936e-16)	(6.625924e-01 -1.605349e-01 3.160326e-20)
0.00666136    	(6.646983e+01 2.516803e+02 3.061421e-16)	(6.580914e+01 2.518402e+02 3.061114e-16)	(6.606919e-01 -1.598776e-01 3.065413e-20)
0.0067092     	(6.700083e+01 2.527323e+02 2.891283e-16)	(6.634202e+01 2.528916e+02 2.890998e-16)	(6.588127e-01 -1.592571e-01 2.845823e-20)
0.00675699    	(6.738015e+01 2.536435e+02 2.735164e-16)	(6.672321e+01 2.538022e+02 2.734913e-16)	(6.569417e-01 -1.586434e-01 2.507611e-20)
0.00680476    	(6.753614e+01 2.541583e+02 2.591175e-16)	(6.688110e+01 2.543163e+02 2.590964e-16)	(6.550429e-01 -1.580172e-01 2.107456e-20)
0.00685248    	(6.780948e+01 2.548483e+02 2.375551e-16)	(6.715635e+01 2.550057e+02 2.375388e-16)	(6.531299e-01 -1.573885e-01 1.636215e-20)
0.00690018    	(6.809360e+01 2.556510e+02 2.100716e-16)	(6.744236e+01 2.558078e+02 2.100607e-16)	(6.512391e-01 -1.568027e-01 1.082636e-20)
0.0069478     	(6.847011e+01 2.565258e+02 1.894810e-16)	(6.782077e+01 2.566820e+02 1.894763e-16)	(6.493473e-01 -1.562162e-01 4.733182e-21)
0.00699537    	(6.861553e+01 2.570537e+02 1.702033e-16)	(6.796809e+01 2.572093e+02 1.702052e-16)	(6.474314e-01 -1.556107e-01 -1.906832e-21)
0.00704289    	(6.912424e+01 2.579854e+02 1.517892e-16)	(6.847870e+01 2.581405e+02 1.517966e-16)	(6.455399e-01 -1.550344e-01 -7.368005e-21)
0.00709039    	(6.930834e+01 2.587713e+02 1.349155e-16)	(6.866466e+01 2.589257e+02 1.349277e-16)	(6.436863e-01 -1.544879e-01 -1.228918e-20)
0.00713785    	(6.960800e+01 2.594169e+02 1.207536e-16)	(6.896616e+01 2.595708e+02 1.207718e-16)	(6.418428e-01 -1.539280e-01 -1.821092e-20)
0.00718527    	(7.018262e+01 2.606148e+02 1.133986e-16)	(6.954268e+01 2.607682e+02 1.134222e-16)	(6.399428e-01 -1.533686e-01 -2.366100e-20)
0.00723268    	(7.056639e+01 2.614705e+02 1.068682e-16)	(6.992832e+01 2.616234e+02 1.068955e-16)	(6.380755e-01 -1.528242e-01 -2.727650e-20)
0.00728008    	(7.070307e+01 2.621142e+02 9.994606e-17)	(7.006685e+01 2.622665e+02 9.997729e-17)	(6.362255e-01 -1.522986e-01 -3.122430e-20)
0.00732746    	(7.117997e+01 2.630207e+02 9.588724e-17)	(7.054563e+01 2.631724e+02 9.592244e-17)	(6.343436e-01 -1.517561e-01 -3.520362e-20)
0.00737479    	(7.188987e+01 2.644677e+02 9.246466e-17)	(7.125747e+01 2.646189e+02 9.250378e-17)	(6.324055e-01 -1.512144e-01 -3.911655e-20)
0.00742207    	(7.207193e+01 2.650807e+02 8.823497e-17)	(7.144141e+01 2.652314e+02 8.827844e-17)	(6.305198e-01 -1.506891e-01 -4.347401e-20)
0.0074693     	(7.228021e+01 2.659752e+02 8.500827e-17)	(7.165156e+01 2.661253e+02 8.505564e-17)	(6.286426e-01 -1.501637e-01 -4.736484e-20)
0.00751649    	(7.307484e+01 2.672365e+02 8.162809e-17)	(7.244811e+01 2.673861e+02 8.167919e-17)	(6.267245e-01 -1.496426e-01 -5.110157e-20)
0.00756365    	(7.342513e+01 2.681882e+02 7.788738e-17)	(7.280035e+01 2.683373e+02 7.794251e-17)	(6.247752e-01 -1.491018e-01 -5.512847e-20)
0.00761076    	(7.355728e+01 2.687623e+02 7.267859e-17)	(7.293440e+01 2.689108e+02 7.273800e-17)	(6.228799e-01 -1.485721e-01 -5.940879e-20)
0.00765785    	(7.388755e+01 2.697412e+02 6.831381e-17)	(7.326656e+01 2.698892e+02 6.837699e-17)	(6.209923e-01 -1.480501e-01 -6.318077e-20)
0.00770494    	(7.466210e+01 2.709439e+02 6.183285e-17)	(7.404304e+01 2.710914e+02 6.189974e-17)	(6.190557e-01 -1.475221e-01 -6.688657e-20)
0.00775201    	(7.498860e+01 2.718356e+02 5.486468e-17)	(7.437152e+01 2.719826e+02 5.493518e-17)	(6.170787e-01 -1.469776e-01 -7.049877e-20)
0.00779907    	(7.491449e+01 2.720068e+02 4.746525e-17)	(7.429934e+01 2.721532e+02 4.753921e-17)	(6.151476e-01 -1.464318e-01 -7.396654e-20)
0.00784614    	(7.532070e+01 2.730741e+02 3.975376e-17)	(7.470747e+01 2.732201e+02 3.983111e-17)	(6.132308e-01 -1.459138e-01 -7.734749e-20)
0.0078932     	(7.600127e+01 2.742070e+02 3.266959e-17)	(7.538998e+01 2.743523e+02 3.275018e-17)	(6.112886e-01 -1.453869e-01 -8.059137e-20)
0.00794027    	(7.624426e+01 2.749188e+02 2.543299e-17)	(7.563492e+01 2.750636e+02 2.551608e-17)	(6.093367e-01 -1.448281e-01 -8.308977e-20)
0.00798736    	(7.622662e+01 2.752341e+02 1.534254e-17)	(7.561918e+01 2.753784e+02 1.542712e-17)	(6.074382e-01 -1.442692e-01 -8.457661e-20)
0.00803447    	(7.674513e+01 2.764576e+02 8.671539e-18)	(7.613955e+01 2.766013e+02 8.758222e-18)	(6.055737e-01 -1.437419e-01 -8.668341e-20)
0.00808161    	(7.726110e+01 2.773978e+02 1.425729e-18)	(7.665739e+01 2.775410e+02 1.514324e-18)	(6.037119e-01 -1.432058e-01 -8.859571e-20)
0.00812877    	(7.741937e+01 2.778675e+02 -5.633030e-18)	(7.681752e+01 2.780102e+02 -5.542763e-18)	(6.018501e-01 -1.426360e-01 -9.026656e-20)
0.00817596    	(7.742469e+01 2.782286e+02 -1.376959e-17)	(7.682465e+01 2.783706e+02 -1.367920e-17)	(6.000364e-01 -1.420633e-01 -9.038355e-20)
0.00822319    	(7.788937e+01 2.791841e+02 -1.957648e-17)	(7.729111e+01 2.793256e+02 -1.948540e-17)	(5.982638e-01 -1.415186e-01 -9.107613e-20)
0.00827047    	(7.832834e+01 2.799700e+02 -2.576162e-17)	(7.773185e+01 2.801110e+02 -2.567023e-17)	(5.964870e-01 -1.409620e-01 -9.138917e-20)
0.00831781    	(7.848693e+01 2.803560e+02 -3.338442e-17)	(7.789224e+01 2.804964e+02 -3.329281e-17)	(5.946835e-01 -1.403699e-01 -9.160993e-20)
0.00836519    	(7.846988e+01 2.806119e+02 -3.993085e-17)	(7.787700e+01 2.807517e+02 -3.983962e-17)	(5.928851e-01 -1.397756e-01 -9.122444e-20)
0.00841262    	(7.879738e+01 2.813143e+02 -4.617980e-17)	(7.820625e+01 2.814536e+02 -4.608884e-17)	(5.911226e-01 -1.392108e-01 -9.096013e-20)
0.0084601     	(7.916030e+01 2.818008e+02 -5.188892e-17)	(7.857094e+01 2.819395e+02 -5.179903e-17)	(5.893530e-01 -1.386406e-01 -8.989282e-20)
0.00850765    	(7.922551e+01 2.819860e+02 -5.899094e-17)	(7.863795e+01 2.821240e+02 -5.890251e-17)	(5.875645e-01 -1.380345e-01 -8.842236e-20)
0.00855525    	(7.917598e+01 2.821140e+02 -6.707693e-17)	(7.859021e+01 2.822515e+02 -6.699035e-17)	(5.857747e-01 -1.374378e-01 -8.657362e-20)
0.00860293    	(7.933178e+01 2.824136e+02 -7.579180e-17)	(7.874776e+01 2.825504e+02 -7.570746e-17)	(5.840210e-01 -1.368695e-01 -8.433464e-20)
0.00865068    	(7.963012e+01 2.826458e+02 -8.450720e-17)	(7.904786e+01 2.827821e+02 -8.442594e-17)	(5.822571e-01 -1.362817e-01 -8.126775e-20)
0.00869851    	(7.973164e+01 2.827665e+02 -9.394717e-17)	(7.915116e+01 2.829022e+02 -9.386968e-17)	(5.804748e-01 -1.356595e-01 -7.748903e-20)
0.00874644    	(7.968379e+01 2.827958e+02 -1.048086e-16)	(7.910511e+01 2.829309e+02 -1.047356e-16)	(5.786823e-01 -1.350463e-01 -7.297965e-20)
0.00879444    	(7.995058e+01 2.831452e+02 -1.151853e-16)	(7.937365e+01 2.832797e+02 -1.151174e-16)	(5.769290e-01 -1.344689e-01 -6.785928e-20)
0.00884254    	(8.021105e+01 2.832895e+02 -1.243624e-16)	(7.963589e+01 2.834234e+02 -1.243006e-16)	(5.751657e-01 -1.338628e-01 -6.171847e-20)
0.00889072    	(8.035453e+01 2.835908e+02 -1.334260e-16)	(7.978115e+01 2.837240e+02 -1.333712e-16)	(5.733767e-01 -1.332299e-01 -5.484325e-20)
0.0089389     	(8.035847e+01 2.838003e+02 -1.451608e-16)	(7.978689e+01 2.839329e+02 -1.451138e-16)	(5.715762e-01 -1.326041e-01 -4.702588e-20)
0.00898706    	(8.068724e+01 2.842920e+02 -1.554636e-16)	(8.011743e+01 2.844240e+02 -1.554253e-16)	(5.698110e-01 -1.320038e-01 -3.829843e-20)
0.00903516    	(8.092588e+01 2.845840e+02 -1.618375e-16)	(8.035783e+01 2.847154e+02 -1.618085e-16)	(5.680505e-01 -1.313733e-01 -2.897964e-20)
0.00908324    	(8.115789e+01 2.849491e+02 -1.684346e-16)	(8.059161e+01 2.850798e+02 -1.684150e-16)	(5.662817e-01 -1.307163e-01 -1.956353e-20)
0.00913129    	(8.125035e+01 2.852983e+02 -1.775647e-16)	(8.068582e+01 2.854284e+02 -1.775549e-16)	(5.645294e-01 -1.300651e-01 -9.811774e-21)
0.00917932    	(8.160829e+01 2.859107e+02 -1.814058e-16)	(8.104548e+01 2.860401e+02 -1.814059e-16)	(5.628163e-01 -1.294282e-01 1.226250e-22)
0.00922732    	(8.196948e+01 2.864945e+02 -1.823003e-16)	(8.140836e+01 2.866232e+02 -1.823100e-16)	(5.611149e-01 -1.287496e-01 9.683238e-21)
0.0092753     	(8.234333e+01 2.871804e+02 -1.801337e-16)	(8.178393e+01 2.873084e+02 -1.801525e-16)	(5.593948e-01 -1.280510e-01 1.885063e-20)
0.00932328    	(8.255717e+01 2.879164e+02 -1.777751e-16)	(8.199948e+01 2.880437e+02 -1.778026e-16)	(5.576917e-01 -1.273594e-01 2.751954e-20)
0.00937123    	(8.297013e+01 2.888628e+02 -1.666874e-16)	(8.241411e+01 2.889894e+02 -1.667232e-16)	(5.560237e-01 -1.266648e-01 3.579310e-20)
0.00941918    	(8.340820e+01 2.896479e+02 -1.575159e-16)	(8.285386e+01 2.897738e+02 -1.575591e-16)	(5.543452e-01 -1.259321e-01 4.323447e-20)
0.00946713    	(8.389204e+01 2.905777e+02 -1.437292e-16)	(8.333940e+01 2.907029e+02 -1.437790e-16)	(5.526447e-01 -1.251840e-01 4.983618e-20)
0.00951509    	(8.426572e+01 2.916507e+02 -1.310581e-16)	(8.371478e+01 2.917751e+02 -1.311139e-16)	(5.509446e-01 -1.244335e-01 5.588587e-20)
0.00956304    	(8.460268e+01 2.925603e+02 -1.111654e-16)	(8.405340e+01 2.926840e+02 -1.112267e-16)	(5.492871e-01 -1.236708e-01 6.135996e-20)
0.00961099    	(8.508434e+01 2.934219e+02 -8.609192e-17)	(8.453674e+01 2.935448e+02 -8.615815e-17)	(5.476008e-01 -1.228675e-01 6.622369e-20)
0.00965894    	(8.562563e+01 2.946916e+02 -6.324491e-17)	(8.507973e+01 2.948137e+02 -6.331577e-17)	(5.458956e-01 -1.220618e-01 7.086219e-20)
0.00970687    	(8.594141e+01 2.956342e+02 -4.005540e-17)	(8.539721e+01 2.957555e+02 -4.013073e-17)	(5.441945e-01 -1.212761e-01 7.533285e-20)
0.00975474    	(8.632924e+01 2.965723e+02 -1.399014e-17)	(8.578672e+01 2.966928e+02 -1.406956e-17)	(5.425205e-01 -1.204831e-01 7.942294e-20)
0.00980257    	(8.688099e+01 2.978584e+02 1.442969e-17)	(8.634016e+01 2.979781e+02 1.434644e-17)	(5.408329e-01 -1.196747e-01 8.325493e-20)
0.00985037    	(8.748123e+01 2.992031e+02 4.563590e-17)	(8.694211e+01 2.993220e+02 4.554860e-17)	(5.391169e-01 -1.188678e-01 8.730053e-20)
0.00989812    	(8.779361e+01 3.002175e+02 7.397730e-17)	(8.725618e+01 3.003356e+02 7.388620e-17)	(5.374265e-01 -1.180807e-01 9.110515e-20)
0.00994584    	(8.824136e+01 3.013570e+02 1.009604e-16)	(8.770560e+01 3.014743e+02 1.008656e-16)	(5.357585e-01 -1.172810e-01 9.488071e-20)
0.00999354    	(8.881937e+01 3.026305e+02 1.272228e-16)	(8.828528e+01 3.027470e+02 1.271242e-16)	(5.340848e-01 -1.164712e-01 9.864979e-20)
0.0100412     	(8.924105e+01 3.036648e+02 1.565307e-16)	(8.870866e+01 3.037805e+02 1.564283e-16)	(5.323923e-01 -1.156640e-01 1.023861e-19)
0.0100889     	(8.956041e+01 3.048037e+02 1.825298e-16)	(8.902969e+01 3.049186e+02 1.824238e-16)	(5.307232e-01 -1.148668e-01 1.059970e-19)